M 0.0 nn:50 x:670 y:670 rp:dsdv
M 0.0 sc:../mobility/scene/scen-670x670-50-600-20-0 cp:../mobility/scene/cbr-50-20-4-512 seed:0.0
M 0.0 prop:Propagation/Shadowing ant:Antenna/OmniAntenna
s 22.465028699 _18_ AGT  --- 222 cbr 512 [0 0 0 0] ------- [18:1 20:0 32 0] [0] 0 2
r 22.474307206 _20_ AGT  --- 222 cbr 532 [14a 14 12 800] ------- [18:1 20:0 32 20] [0] 1 2
s 23.789830405 _16_ AGT  --- 233 cbr 512 [0 0 0 0] ------- [16:0 17:0 32 0] [0] 0 1
r 23.819838417 _17_ AGT  --- 233 cbr 532 [14a 11 10 800] ------- [16:0 17:0 32 17] [0] 1 1
s 27.109355658 _18_ AGT  --- 337 cbr 512 [0 0 0 0] ------- [18:1 20:0 32 0] [1] 0 2
r 27.115034876 _20_ AGT  --- 337 cbr 532 [14a 14 12 800] ------- [18:1 20:0 32 20] [1] 1 2
s 28.517876199 _16_ AGT  --- 346 cbr 512 [0 0 0 0] ------- [16:0 17:0 32 0] [1] 0 1
r 28.523573950 _17_ AGT  --- 346 cbr 532 [14a 11 10 800] ------- [16:0 17:0 32 17] [1] 1 1
s 29.031284241 _9_ AGT  --- 348 cbr 512 [0 0 0 0] ------- [9:2 11:0 32 0] [0] 0 2
r 29.040502257 _11_ AGT  --- 348 cbr 532 [14a b 9 800] ------- [9:2 11:0 32 11] [0] 1 2
s 30.208176370 _13_ AGT  --- 349 cbr 512 [0 0 0 0] ------- [13:2 14:1 32 0] [0] 0 3
r 30.217218932 _14_ AGT  --- 349 cbr 532 [14a e d 800] ------- [13:2 14:1 32 14] [0] 1 3
s 31.559518417 _9_ AGT  --- 350 cbr 512 [0 0 0 0] ------- [9:2 11:0 32 0] [1] 0 2
r 31.565277424 _11_ AGT  --- 350 cbr 532 [14a b 9 800] ------- [9:2 11:0 32 11] [1] 1 2
s 32.434027700 _18_ AGT  --- 351 cbr 512 [0 0 0 0] ------- [18:1 20:0 32 0] [2] 0 2
r 32.439986918 _20_ AGT  --- 351 cbr 532 [14a 14 12 800] ------- [18:1 20:0 32 20] [2] 1 2
s 32.473216912 _16_ AGT  --- 352 cbr 512 [0 0 0 0] ------- [16:0 17:0 32 0] [2] 0 1
r 32.478934663 _17_ AGT  --- 352 cbr 532 [14a 11 10 800] ------- [16:0 17:0 32 17] [2] 1 1
s 34.942150286 _13_ AGT  --- 353 cbr 512 [0 0 0 0] ------- [13:2 14:1 32 0] [1] 0 3
r 34.956466544 _14_ AGT  --- 353 cbr 532 [14a e d 800] ------- [13:2 14:1 32 14] [1] 1 3
s 35.849186104 _18_ AGT  --- 360 cbr 512 [0 0 0 0] ------- [18:1 20:0 32 0] [3] 0 2
r 35.855085321 _20_ AGT  --- 360 cbr 532 [14a 14 12 800] ------- [18:1 20:0 32 20] [3] 1 2
s 36.594234348 _9_ AGT  --- 368 cbr 512 [0 0 0 0] ------- [9:2 11:0 32 0] [2] 0 2
r 36.600053355 _11_ AGT  --- 368 cbr 532 [14a b 9 800] ------- [9:2 11:0 32 11] [2] 1 2
s 37.684217804 _16_ AGT  --- 376 cbr 512 [0 0 0 0] ------- [16:0 17:0 32 0] [3] 0 1
r 37.689875556 _17_ AGT  --- 376 cbr 532 [14a 11 10 800] ------- [16:0 17:0 32 17] [3] 1 1
s 37.953153224 _8_ AGT  --- 380 cbr 512 [0 0 0 0] ------- [8:1 10:0 32 0] [0] 0 2
s 39.626685712 _18_ AGT  --- 397 cbr 512 [0 0 0 0] ------- [18:1 20:0 32 0] [4] 0 2
r 39.632704930 _20_ AGT  --- 397 cbr 532 [14a 14 12 800] ------- [18:1 20:0 32 20] [4] 1 2
s 40.486738592 _13_ AGT  --- 401 cbr 512 [0 0 0 0] ------- [13:2 14:1 32 0] [2] 0 3
r 40.494151547 _14_ AGT  --- 401 cbr 532 [14a e d 800] ------- [13:2 14:1 32 14] [2] 1 3
s 40.802953447 _9_ AGT  --- 405 cbr 512 [0 0 0 0] ------- [9:2 11:0 32 0] [3] 0 2
r 40.808852454 _11_ AGT  --- 405 cbr 532 [14a b 9 800] ------- [9:2 11:0 32 11] [3] 1 2
s 40.917940000 _12_ AGT  --- 406 cbr 512 [0 0 0 0] ------- [12:2 14:0 32 0] [0] 0 2
r 40.926757182 _14_ AGT  --- 406 cbr 532 [14a e c 800] ------- [12:2 14:0 32 14] [0] 1 2
s 41.461917058 _16_ AGT  --- 410 cbr 512 [0 0 0 0] ------- [16:0 17:0 32 0] [4] 0 1
r 41.467714810 _17_ AGT  --- 410 cbr 532 [14a 11 10 800] ------- [16:0 17:0 32 17] [4] 1 1
s 43.458473470 _18_ AGT  --- 413 cbr 512 [0 0 0 0] ------- [18:1 20:0 32 0] [5] 0 2
r 43.464372687 _20_ AGT  --- 413 cbr 532 [14a 14 12 800] ------- [18:1 20:0 32 20] [5] 1 2
s 43.863668613 _8_ AGT  --- 414 cbr 512 [0 0 0 0] ------- [8:1 10:0 32 0] [1] 0 2
D 43.863668613 _8_ IFQ  ARP 380 cbr 532 [0 0 8 800] ------- [8:1 10:0 32 10] [0] 0 2
r 43.875193363 _10_ AGT  --- 414 cbr 532 [14a a 8 800] ------- [8:1 10:0 32 10] [1] 1 2
s 44.361111244 _9_ AGT  --- 415 cbr 512 [0 0 0 0] ------- [9:2 11:0 32 0] [4] 0 2
r 44.367030251 _11_ AGT  --- 415 cbr 532 [14a b 9 800] ------- [9:2 11:0 32 11] [4] 1 2
s 44.586760568 _12_ AGT  --- 416 cbr 512 [0 0 0 0] ------- [12:2 14:0 32 0] [1] 0 2
r 44.592599217 _14_ AGT  --- 416 cbr 532 [14a e c 800] ------- [12:2 14:0 32 14] [1] 1 2
s 45.498175319 _18_ AGT  --- 417 cbr 512 [0 0 0 0] ------- [18:1 20:0 32 0] [6] 0 2
r 45.503694537 _20_ AGT  --- 417 cbr 532 [14a 14 12 800] ------- [18:1 20:0 32 20] [6] 1 2
s 45.876282126 _13_ AGT  --- 418 cbr 512 [0 0 0 0] ------- [13:2 14:1 32 0] [3] 0 3
r 45.896369687 _14_ AGT  --- 418 cbr 532 [14a e d 800] ------- [13:2 14:1 32 14] [3] 1 3
s 47.063104080 _12_ AGT  --- 419 cbr 512 [0 0 0 0] ------- [12:2 14:0 32 0] [2] 0 2
r 47.068842729 _14_ AGT  --- 419 cbr 532 [14a e c 800] ------- [12:2 14:0 32 14] [2] 1 2
s 47.090688485 _9_ AGT  --- 420 cbr 512 [0 0 0 0] ------- [9:2 11:0 32 0] [5] 0 2
r 47.096427492 _11_ AGT  --- 420 cbr 532 [14a b 9 800] ------- [9:2 11:0 32 11] [5] 1 2
s 47.304271431 _16_ AGT  --- 421 cbr 512 [0 0 0 0] ------- [16:0 17:0 32 0] [5] 0 1
r 47.310129182 _17_ AGT  --- 421 cbr 532 [14a 11 10 800] ------- [16:0 17:0 32 17] [5] 1 1
s 48.867195047 _8_ AGT  --- 427 cbr 512 [0 0 0 0] ------- [8:1 10:0 32 0] [2] 0 2
r 48.882311223 _10_ AGT  --- 427 cbr 532 [14a a 12 800] ------- [8:1 10:0 31 10] [2] 2 2
s 50.184581805 _18_ AGT  --- 439 cbr 512 [0 0 0 0] ------- [18:1 20:0 32 0] [7] 0 2
r 50.190401022 _20_ AGT  --- 439 cbr 532 [14a 14 12 800] ------- [18:1 20:0 32 20] [7] 1 2
s 50.246903764 _16_ AGT  --- 440 cbr 512 [0 0 0 0] ------- [16:0 17:0 32 0] [6] 0 1
r 50.252921515 _17_ AGT  --- 440 cbr 532 [14a 11 10 800] ------- [16:0 17:0 32 17] [6] 1 1
s 51.475287319 _13_ AGT  --- 450 cbr 512 [0 0 0 0] ------- [13:2 14:1 32 0] [4] 0 3
r 51.482200274 _14_ AGT  --- 450 cbr 532 [14a e d 800] ------- [13:2 14:1 32 14] [4] 1 3
s 52.325497801 _9_ AGT  --- 454 cbr 512 [0 0 0 0] ------- [9:2 11:0 32 0] [6] 0 2
r 52.331396808 _11_ AGT  --- 454 cbr 532 [14a b 9 800] ------- [9:2 11:0 32 11] [6] 1 2
s 52.866059833 _8_ AGT  --- 462 cbr 512 [0 0 0 0] ------- [8:1 10:0 32 0] [3] 0 2
r 52.885930862 _10_ AGT  --- 462 cbr 532 [14a a 12 800] ------- [8:1 10:0 31 10] [3] 2 2
s 52.900338569 _12_ AGT  --- 463 cbr 512 [0 0 0 0] ------- [12:2 14:0 32 0] [3] 0 2
r 52.906197219 _14_ AGT  --- 463 cbr 532 [14a e c 800] ------- [12:2 14:0 32 14] [3] 1 2
s 53.437931359 _18_ AGT  --- 468 cbr 512 [0 0 0 0] ------- [18:1 20:0 32 0] [8] 0 2
r 53.443990576 _20_ AGT  --- 468 cbr 532 [14a 14 12 800] ------- [18:1 20:0 32 20] [8] 1 2
s 55.910749775 _12_ AGT  --- 479 cbr 512 [0 0 0 0] ------- [12:2 14:0 32 0] [4] 0 2
r 55.916608424 _14_ AGT  --- 479 cbr 532 [14a e c 800] ------- [12:2 14:0 32 14] [4] 1 2
s 56.080341042 _16_ AGT  --- 480 cbr 512 [0 0 0 0] ------- [16:0 17:0 32 0] [7] 0 1
r 56.086198793 _17_ AGT  --- 480 cbr 532 [14a 11 10 800] ------- [16:0 17:0 32 17] [7] 1 1
s 56.100268068 _13_ AGT  --- 481 cbr 512 [0 0 0 0] ------- [13:2 14:1 32 0] [5] 0 3
r 56.112712327 _14_ AGT  --- 481 cbr 532 [14a e d 800] ------- [13:2 14:1 32 14] [5] 1 3
s 57.250711866 _8_ AGT  --- 482 cbr 512 [0 0 0 0] ------- [8:1 10:0 32 0] [4] 0 2
r 57.256292707 _10_ AGT  --- 482 cbr 532 [14a a 8 800] ------- [8:1 10:0 32 10] [4] 1 2
s 57.600376090 _9_ AGT  --- 484 cbr 512 [0 0 0 0] ------- [9:2 11:0 32 0] [7] 0 2
r 57.606015097 _11_ AGT  --- 484 cbr 532 [14a b 9 800] ------- [9:2 11:0 32 11] [7] 1 2
s 58.055133080 _12_ AGT  --- 485 cbr 512 [0 0 0 0] ------- [12:2 14:0 32 0] [5] 0 2
r 58.060791729 _14_ AGT  --- 485 cbr 532 [14a e c 800] ------- [12:2 14:0 32 14] [5] 1 2
s 58.801221665 _16_ AGT  --- 486 cbr 512 [0 0 0 0] ------- [16:0 17:0 32 0] [8] 0 1
s 58.804700273 _18_ AGT  --- 487 cbr 512 [0 0 0 0] ------- [18:1 20:0 32 0] [9] 0 2
r 58.806759416 _17_ AGT  --- 486 cbr 532 [14a 11 10 800] ------- [16:0 17:0 32 17] [8] 1 1
r 58.819514156 _20_ AGT  --- 487 cbr 532 [14a 14 12 800] ------- [18:1 20:0 32 20] [9] 1 2
s 59.315558074 _13_ AGT  --- 488 cbr 512 [0 0 0 0] ------- [13:2 14:1 32 0] [6] 0 3
r 59.329066332 _14_ AGT  --- 488 cbr 532 [14a e d 800] ------- [13:2 14:1 32 14] [6] 1 3
s 59.710531391 _9_ AGT  --- 490 cbr 512 [0 0 0 0] ------- [9:2 11:0 32 0] [8] 0 2
r 59.716330398 _11_ AGT  --- 490 cbr 532 [14a b 9 800] ------- [9:2 11:0 32 11] [8] 1 2
s 61.419175047 _13_ AGT  --- 496 cbr 512 [0 0 0 0] ------- [13:2 14:1 32 0] [7] 0 3
r 61.424796002 _14_ AGT  --- 496 cbr 532 [14a e d 800] ------- [13:2 14:1 32 14] [7] 1 3
s 61.505198106 _8_ AGT  --- 497 cbr 512 [0 0 0 0] ------- [8:1 10:0 32 0] [5] 0 2
r 61.511298947 _10_ AGT  --- 497 cbr 532 [14a a 8 800] ------- [8:1 10:0 32 10] [5] 1 2
s 62.624128625 _12_ AGT  --- 503 cbr 512 [0 0 0 0] ------- [12:2 14:0 32 0] [6] 0 2
r 62.630187274 _14_ AGT  --- 503 cbr 532 [14a e c 800] ------- [12:2 14:0 32 14] [6] 1 2
s 63.719337422 _18_ AGT  --- 510 cbr 512 [0 0 0 0] ------- [18:1 20:0 32 0] [10] 0 2
r 63.724896639 _20_ AGT  --- 510 cbr 532 [14a 14 12 800] ------- [18:1 20:0 32 20] [10] 1 2
s 63.989626097 _8_ AGT  --- 514 cbr 512 [0 0 0 0] ------- [8:1 10:0 32 0] [6] 0 2
r 63.995126938 _10_ AGT  --- 514 cbr 532 [14a a 8 800] ------- [8:1 10:0 32 10] [6] 1 2
s 64.566463717 _16_ AGT  --- 519 cbr 512 [0 0 0 0] ------- [16:0 17:0 32 0] [9] 0 1
r 64.572261468 _17_ AGT  --- 519 cbr 532 [14a 11 10 800] ------- [16:0 17:0 32 17] [9] 1 1
s 64.740130978 _12_ AGT  --- 522 cbr 512 [0 0 0 0] ------- [12:2 14:0 32 0] [7] 0 2
r 64.747801433 _14_ AGT  --- 522 cbr 532 [14a e c 800] ------- [12:2 14:0 32 14] [7] 1 2
s 64.927798925 _9_ AGT  --- 523 cbr 512 [0 0 0 0] ------- [9:2 11:0 32 0] [9] 0 2
r 64.933357932 _11_ AGT  --- 523 cbr 532 [14a b 9 800] ------- [9:2 11:0 32 11] [9] 1 2
s 65.690432859 _13_ AGT  --- 533 cbr 512 [0 0 0 0] ------- [13:2 14:1 32 0] [8] 0 3
r 65.696133814 _14_ AGT  --- 533 cbr 532 [14a e d 800] ------- [13:2 14:1 32 14] [8] 1 3
s 67.420330399 _16_ AGT  --- 541 cbr 512 [0 0 0 0] ------- [16:0 17:0 32 0] [10] 0 1
r 67.426328150 _17_ AGT  --- 541 cbr 532 [14a 11 10 800] ------- [16:0 17:0 32 17] [10] 1 1
s 68.178188207 _13_ AGT  --- 547 cbr 512 [0 0 0 0] ------- [13:2 14:1 32 0] [9] 0 3
r 68.183769162 _14_ AGT  --- 547 cbr 532 [14a e d 800] ------- [13:2 14:1 32 14] [9] 1 3
s 68.199570183 _9_ AGT  --- 548 cbr 512 [0 0 0 0] ------- [9:2 11:0 32 0] [10] 0 2
r 68.205169190 _11_ AGT  --- 548 cbr 532 [14a b 9 800] ------- [9:2 11:0 32 11] [10] 1 2
s 68.858933847 _8_ AGT  --- 550 cbr 512 [0 0 0 0] ------- [8:1 10:0 32 0] [7] 0 2
r 68.864594688 _10_ AGT  --- 550 cbr 532 [14a a 8 800] ------- [8:1 10:0 32 10] [7] 1 2
s 68.874960500 _18_ AGT  --- 551 cbr 512 [0 0 0 0] ------- [18:1 20:0 32 0] [11] 0 2
r 68.880999718 _20_ AGT  --- 551 cbr 532 [14a 14 12 800] ------- [18:1 20:0 32 20] [11] 1 2
s 68.959999608 _12_ AGT  --- 553 cbr 512 [0 0 0 0] ------- [12:2 14:0 32 0] [8] 0 2
r 68.965998257 _14_ AGT  --- 553 cbr 532 [14a e c 800] ------- [12:2 14:0 32 14] [8] 1 2
s 69.994170798 _16_ AGT  --- 554 cbr 512 [0 0 0 0] ------- [16:0 17:0 32 0] [11] 0 1
r 69.999888549 _17_ AGT  --- 554 cbr 532 [14a 11 10 800] ------- [16:0 17:0 32 17] [11] 1 1
s 71.973765953 _9_ AGT  --- 556 cbr 512 [0 0 0 0] ------- [9:2 11:0 32 0] [11] 0 2
r 71.979384960 _11_ AGT  --- 556 cbr 532 [14a b 9 800] ------- [9:2 11:0 32 11] [11] 1 2
s 72.352954805 _12_ AGT  --- 557 cbr 512 [0 0 0 0] ------- [12:2 14:0 32 0] [9] 0 2
r 72.359053454 _14_ AGT  --- 557 cbr 532 [14a e c 800] ------- [12:2 14:0 32 14] [9] 1 2
s 72.393773315 _8_ AGT  --- 558 cbr 512 [0 0 0 0] ------- [8:1 10:0 32 0] [8] 0 2
r 72.399594156 _10_ AGT  --- 558 cbr 532 [14a a 8 800] ------- [8:1 10:0 32 10] [8] 1 2
s 73.157949168 _13_ AGT  --- 561 cbr 512 [0 0 0 0] ------- [13:2 14:1 32 0] [10] 0 3
r 73.166894123 _14_ AGT  --- 561 cbr 532 [14a e d 800] ------- [13:2 14:1 32 14] [10] 1 3
s 73.682903012 _18_ AGT  --- 564 cbr 512 [0 0 0 0] ------- [18:1 20:0 32 0] [12] 0 2
r 73.688622229 _20_ AGT  --- 564 cbr 532 [14a 14 12 800] ------- [18:1 20:0 32 20] [12] 1 2
s 74.795083719 _16_ AGT  --- 567 cbr 512 [0 0 0 0] ------- [16:0 17:0 32 0] [12] 0 1
r 74.800981471 _17_ AGT  --- 567 cbr 532 [14a 11 10 800] ------- [16:0 17:0 32 17] [12] 1 1
s 75.477956243 _19_ AGT  --- 574 cbr 512 [0 0 0 0] ------- [19:1 20:1 32 0] [0] 0 3
r 75.491263077 _20_ AGT  --- 574 cbr 532 [14a 14 13 800] ------- [19:1 20:1 32 20] [0] 1 3
s 75.754290322 _18_ AGT  --- 576 cbr 512 [0 0 0 0] ------- [18:1 20:0 32 0] [13] 0 2
r 75.761021540 _20_ AGT  --- 576 cbr 532 [14a 14 12 800] ------- [18:1 20:0 32 20] [13] 1 2
s 76.784984927 _12_ AGT  --- 585 cbr 512 [0 0 0 0] ------- [12:2 14:0 32 0] [10] 0 2
r 76.790483577 _14_ AGT  --- 585 cbr 532 [14a e c 800] ------- [12:2 14:0 32 14] [10] 1 2
s 77.084636868 _8_ AGT  --- 588 cbr 512 [0 0 0 0] ------- [8:1 10:0 32 0] [9] 0 2
r 77.090437709 _10_ AGT  --- 588 cbr 532 [14a a 8 800] ------- [8:1 10:0 32 10] [9] 1 2
s 77.424268640 _16_ AGT  --- 592 cbr 512 [0 0 0 0] ------- [16:0 17:0 32 0] [13] 0 1
r 77.430266391 _17_ AGT  --- 592 cbr 532 [14a 11 10 800] ------- [16:0 17:0 32 17] [13] 1 1
s 77.763391503 _9_ AGT  --- 595 cbr 512 [0 0 0 0] ------- [9:2 11:0 32 0] [12] 0 2
r 77.769070510 _11_ AGT  --- 595 cbr 532 [14a b 9 800] ------- [9:2 11:0 32 11] [12] 1 2
s 77.922424625 _13_ AGT  --- 596 cbr 512 [0 0 0 0] ------- [13:2 14:1 32 0] [11] 0 3
r 77.944704187 _14_ AGT  --- 596 cbr 532 [14a e d 800] ------- [13:2 14:1 32 14] [11] 1 3
D 77.975706142 _13_ RTR  CBK 596 cbr 532 [14a e d 800] ------- [13:2 14:1 32 14] [11] 0 3
s 78.392249183 _18_ AGT  --- 601 cbr 512 [0 0 0 0] ------- [18:1 20:0 32 0] [14] 0 2
r 78.398308401 _20_ AGT  --- 601 cbr 532 [14a 14 12 800] ------- [18:1 20:0 32 20] [14] 1 2
s 79.371595438 _2_ AGT  --- 607 cbr 512 [0 0 0 0] ------- [2:1 3:1 32 0] [0] 0 3
s 79.865322077 _12_ AGT  --- 611 cbr 512 [0 0 0 0] ------- [12:2 14:0 32 0] [11] 0 2
r 79.871320727 _14_ AGT  --- 611 cbr 532 [14a e c 800] ------- [12:2 14:0 32 14] [11] 1 2
s 80.423611311 _19_ AGT  --- 615 cbr 512 [0 0 0 0] ------- [19:1 20:1 32 0] [1] 0 3
r 80.485644229 _20_ AGT  --- 615 cbr 532 [14a 14 19 800] ------- [19:1 20:1 31 20] [1] 2 3
s 81.182963150 _9_ AGT  --- 618 cbr 512 [0 0 0 0] ------- [9:2 11:0 32 0] [13] 0 2
r 81.188522157 _11_ AGT  --- 618 cbr 532 [14a b 9 800] ------- [9:2 11:0 32 11] [13] 1 2
s 81.487787058 _8_ AGT  --- 620 cbr 512 [0 0 0 0] ------- [8:1 10:0 32 0] [10] 0 2
r 81.493667899 _10_ AGT  --- 620 cbr 532 [14a a 8 800] ------- [8:1 10:0 32 10] [10] 1 2
s 81.657002494 _16_ AGT  --- 622 cbr 512 [0 0 0 0] ------- [16:0 17:0 32 0] [14] 0 1
r 81.662520245 _17_ AGT  --- 622 cbr 532 [14a 11 10 800] ------- [16:0 17:0 32 17] [14] 1 1
s 81.987959891 _18_ AGT  --- 623 cbr 512 [0 0 0 0] ------- [18:1 20:0 32 0] [15] 0 2
r 81.993639108 _20_ AGT  --- 623 cbr 532 [14a 14 12 800] ------- [18:1 20:0 32 20] [15] 1 2
s 82.055431140 _2_ AGT  --- 625 cbr 512 [0 0 0 0] ------- [2:1 3:1 32 0] [1] 0 3
D 82.055431140 _2_ IFQ  ARP 607 cbr 532 [0 0 2 800] ------- [2:1 3:1 32 3] [0] 0 3
r 82.065286200 _3_ AGT  --- 625 cbr 532 [14a 3 2 800] ------- [2:1 3:1 32 3] [1] 1 3
s 83.386783477 _13_ AGT  --- 628 cbr 512 [0 0 0 0] ------- [13:2 14:1 32 0] [12] 0 3
r 83.392624432 _14_ AGT  --- 628 cbr 532 [14a e d 800] ------- [13:2 14:1 32 14] [12] 1 3
s 83.602217233 _18_ AGT  --- 629 cbr 512 [0 0 0 0] ------- [18:0 19:0 32 0] [0] 0 3
r 83.608318557 _19_ AGT  --- 629 cbr 532 [14a 13 12 800] ------- [18:0 19:0 32 19] [0] 1 3
s 83.644134711 _20_ AGT  --- 630 cbr 512 [0 0 0 0] ------- [20:2 21:0 32 0] [0] 0 1
r 83.652911296 _21_ AGT  --- 630 cbr 532 [14a 15 14 800] ------- [20:2 21:0 32 21] [0] 1 1
s 83.999626761 _18_ AGT  --- 631 cbr 512 [0 0 0 0] ------- [18:1 20:0 32 0] [16] 0 2
r 84.006777979 _20_ AGT  --- 631 cbr 532 [14a 14 12 800] ------- [18:1 20:0 32 20] [16] 1 2
s 84.095003741 _12_ AGT  --- 632 cbr 512 [0 0 0 0] ------- [12:2 14:0 32 0] [12] 0 2
r 84.100522391 _14_ AGT  --- 632 cbr 532 [14a e c 800] ------- [12:2 14:0 32 14] [12] 1 2
s 84.931863167 _8_ AGT  --- 634 cbr 512 [0 0 0 0] ------- [8:1 10:0 32 0] [11] 0 2
r 84.943387235 _10_ AGT  --- 634 cbr 532 [14a a 8 800] ------- [8:1 10:0 32 10] [11] 1 2
s 85.182141854 _19_ AGT  --- 635 cbr 512 [0 0 0 0] ------- [19:1 20:1 32 0] [2] 0 3
r 85.187983132 _20_ AGT  --- 635 cbr 532 [14a 14 13 800] ------- [19:1 20:1 32 20] [2] 1 3
s 85.659592692 _20_ AGT  --- 636 cbr 512 [0 0 0 0] ------- [20:2 21:0 32 0] [1] 0 1
r 85.665491086 _21_ AGT  --- 636 cbr 532 [14a 15 14 800] ------- [20:2 21:0 32 21] [1] 1 1
s 85.681788950 _2_ AGT  --- 637 cbr 512 [0 0 0 0] ------- [2:1 3:1 32 0] [2] 0 3
r 85.694045564 _3_ AGT  --- 637 cbr 532 [14a 3 2 800] ------- [2:1 3:1 32 3] [2] 1 3
s 85.758695920 _16_ AGT  --- 638 cbr 512 [0 0 0 0] ------- [16:0 17:0 32 0] [15] 0 1
r 85.764413671 _17_ AGT  --- 638 cbr 532 [14a 11 10 800] ------- [16:0 17:0 32 17] [15] 1 1
s 85.935305080 _9_ AGT  --- 641 cbr 512 [0 0 0 0] ------- [9:2 11:0 32 0] [14] 0 2
r 85.941324087 _11_ AGT  --- 641 cbr 532 [14a b 9 800] ------- [9:2 11:0 32 11] [14] 1 2
s 86.179155738 _13_ AGT  --- 642 cbr 512 [0 0 0 0] ------- [13:2 14:1 32 0] [13] 0 3
r 86.184696693 _14_ AGT  --- 642 cbr 532 [14a e d 800] ------- [13:2 14:1 32 14] [13] 1 3
s 88.179880300 _18_ AGT  --- 650 cbr 512 [0 0 0 0] ------- [18:1 20:0 32 0] [17] 0 2
r 88.185899517 _20_ AGT  --- 650 cbr 532 [14a 14 12 800] ------- [18:1 20:0 32 20] [17] 1 2
s 88.206132847 _13_ AGT  --- 651 cbr 512 [0 0 0 0] ------- [13:2 14:1 32 0] [14] 0 3
r 88.211993802 _14_ AGT  --- 651 cbr 532 [14a e d 800] ------- [13:2 14:1 32 14] [14] 1 3
s 88.413893286 _18_ AGT  --- 652 cbr 512 [0 0 0 0] ------- [18:0 19:0 32 0] [1] 0 3
r 88.430962159 _19_ AGT  --- 652 cbr 532 [14a 13 12 800] ------- [18:0 19:0 32 19] [1] 1 3
s 89.901472544 _19_ AGT  --- 664 cbr 512 [0 0 0 0] ------- [19:1 20:1 32 0] [3] 0 3
r 89.907313822 _20_ AGT  --- 664 cbr 532 [14a 14 13 800] ------- [19:1 20:1 32 20] [3] 1 3
s 90.000402279 _12_ AGT  --- 666 cbr 512 [0 0 0 0] ------- [12:2 14:0 32 0] [13] 0 2
r 90.006240928 _14_ AGT  --- 666 cbr 532 [14a e c 800] ------- [12:2 14:0 32 14] [13] 1 2
s 90.357631852 _8_ AGT  --- 671 cbr 512 [0 0 0 0] ------- [8:1 10:0 32 0] [12] 0 2
r 90.363212693 _10_ AGT  --- 671 cbr 532 [14a a 8 800] ------- [8:1 10:0 32 10] [12] 1 2
s 90.899274855 _9_ AGT  --- 676 cbr 512 [0 0 0 0] ------- [9:2 11:0 32 0] [15] 0 2
r 90.904813861 _11_ AGT  --- 676 cbr 532 [14a b 9 800] ------- [9:2 11:0 32 11] [15] 1 2
s 90.955638358 _16_ AGT  --- 677 cbr 512 [0 0 0 0] ------- [16:0 17:0 32 0] [16] 0 1
r 90.961276109 _17_ AGT  --- 677 cbr 532 [14a 11 10 800] ------- [16:0 17:0 32 17] [16] 1 1
s 91.046389310 _20_ AGT  --- 679 cbr 512 [0 0 0 0] ------- [20:2 21:0 32 0] [2] 0 1
r 91.052427704 _21_ AGT  --- 679 cbr 532 [14a 15 14 800] ------- [20:2 21:0 32 21] [2] 1 1
s 91.545101561 _2_ AGT  --- 682 cbr 512 [0 0 0 0] ------- [2:1 3:1 32 0] [3] 0 3
r 91.552154730 _3_ AGT  --- 682 cbr 532 [14a 3 2 800] ------- [2:1 3:1 32 3] [3] 1 3
s 92.166521257 _19_ AGT  --- 686 cbr 512 [0 0 0 0] ------- [19:1 20:1 32 0] [4] 0 3
r 92.172562535 _20_ AGT  --- 686 cbr 532 [14a 14 13 800] ------- [19:1 20:1 32 20] [4] 1 3
s 92.659894975 _8_ AGT  --- 688 cbr 512 [0 0 0 0] ------- [8:1 10:0 32 0] [13] 0 2
r 92.665475816 _10_ AGT  --- 688 cbr 532 [14a a 8 800] ------- [8:1 10:0 32 10] [13] 1 2
s 93.018870790 _18_ AGT  --- 691 cbr 512 [0 0 0 0] ------- [18:1 20:0 32 0] [18] 0 2
r 93.024930007 _20_ AGT  --- 691 cbr 532 [14a 14 12 800] ------- [18:1 20:0 32 20] [18] 1 2
s 93.202199784 _9_ AGT  --- 692 cbr 512 [0 0 0 0] ------- [9:2 11:0 32 0] [16] 0 2
r 93.209750790 _11_ AGT  --- 692 cbr 532 [14a b 9 800] ------- [9:2 11:0 32 11] [16] 1 2
s 93.364848641 _13_ AGT  --- 695 cbr 512 [0 0 0 0] ------- [13:2 14:1 32 0] [15] 0 3
r 93.370409596 _14_ AGT  --- 695 cbr 532 [14a e d 800] ------- [13:2 14:1 32 14] [15] 1 3
s 93.411293442 _12_ AGT  --- 697 cbr 512 [0 0 0 0] ------- [12:2 14:0 32 0] [14] 0 2
r 93.416992091 _14_ AGT  --- 697 cbr 532 [14a e c 800] ------- [12:2 14:0 32 14] [14] 1 2
s 93.718358314 _18_ AGT  --- 699 cbr 512 [0 0 0 0] ------- [18:0 19:0 32 0] [2] 0 3
D 93.760325286 _49_ RTR  CBK 699 cbr 532 [14a 13 31 800] ------- [18:0 19:0 31 19] [2] 1 3
s 93.915143343 _2_ AGT  --- 700 cbr 512 [0 0 0 0] ------- [2:1 3:1 32 0] [4] 0 3
r 93.934031957 _3_ AGT  --- 700 cbr 532 [14a 3 2 800] ------- [2:1 3:1 32 3] [4] 1 3
s 95.596205572 _8_ AGT  --- 707 cbr 512 [0 0 0 0] ------- [8:1 10:0 32 0] [14] 0 2
r 95.603178413 _10_ AGT  --- 707 cbr 532 [14a a 8 800] ------- [8:1 10:0 32 10] [14] 1 2
s 95.621627891 _12_ AGT  --- 708 cbr 512 [0 0 0 0] ------- [12:2 14:0 32 0] [15] 0 2
r 95.627566541 _14_ AGT  --- 708 cbr 532 [14a e c 800] ------- [12:2 14:0 32 14] [15] 1 2
s 95.971341284 _19_ AGT  --- 710 cbr 512 [0 0 0 0] ------- [19:1 20:1 32 0] [5] 0 3
r 95.977162562 _20_ AGT  --- 710 cbr 532 [14a 14 13 800] ------- [19:1 20:1 32 20] [5] 1 3
s 96.358317297 _16_ AGT  --- 711 cbr 512 [0 0 0 0] ------- [16:0 17:0 32 0] [17] 0 1
r 96.364235049 _17_ AGT  --- 711 cbr 532 [14a 11 10 800] ------- [16:0 17:0 32 17] [17] 1 1
s 96.693996502 _20_ AGT  --- 713 cbr 512 [0 0 0 0] ------- [20:2 21:0 32 0] [3] 0 1
r 96.699994895 _21_ AGT  --- 713 cbr 532 [14a 15 14 800] ------- [20:2 21:0 32 21] [3] 1 1
s 97.126927014 _18_ AGT  --- 714 cbr 512 [0 0 0 0] ------- [18:1 20:0 32 0] [19] 0 2
r 97.132926232 _20_ AGT  --- 714 cbr 532 [14a 14 12 800] ------- [18:1 20:0 32 20] [19] 1 2
s 97.599327127 _13_ AGT  --- 715 cbr 512 [0 0 0 0] ------- [13:2 14:1 32 0] [16] 0 3
r 97.604928082 _14_ AGT  --- 715 cbr 532 [14a e d 800] ------- [13:2 14:1 32 14] [16] 1 3
s 98.000375106 _18_ AGT  --- 716 cbr 512 [0 0 0 0] ------- [18:0 19:0 32 0] [3] 0 3
D 98.049743600 _49_ RTR  CBK 716 cbr 532 [14a 13 31 800] ------- [18:0 19:0 31 19] [3] 1 3
s 98.145103760 _12_ AGT  --- 718 cbr 512 [0 0 0 0] ------- [12:2 14:0 32 0] [16] 0 2
r 98.150762410 _14_ AGT  --- 718 cbr 532 [14a e c 800] ------- [12:2 14:0 32 14] [16] 1 2
s 98.314630220 _19_ AGT  --- 719 cbr 512 [0 0 0 0] ------- [19:1 20:1 32 0] [6] 0 3
r 98.335179017 _20_ AGT  --- 719 cbr 532 [14a 14 13 800] ------- [19:1 20:1 32 20] [6] 1 3
s 98.357541545 _2_ AGT  --- 720 cbr 512 [0 0 0 0] ------- [2:1 3:1 32 0] [5] 0 3
r 98.363242714 _3_ AGT  --- 720 cbr 532 [14a 3 2 800] ------- [2:1 3:1 32 3] [5] 1 3
s 98.571127422 _9_ AGT  --- 721 cbr 512 [0 0 0 0] ------- [9:2 11:0 32 0] [17] 0 2
r 98.576646429 _11_ AGT  --- 721 cbr 532 [14a b 9 800] ------- [9:2 11:0 32 11] [17] 1 2
s 98.848970643 _16_ AGT  --- 722 cbr 512 [0 0 0 0] ------- [16:0 17:0 32 0] [18] 0 1
r 98.854908394 _17_ AGT  --- 722 cbr 532 [14a 11 10 800] ------- [16:0 17:0 32 17] [18] 1 1
s 100.001219205 _20_ AGT  --- 728 cbr 512 [0 0 0 0] ------- [20:2 21:0 32 0] [4] 0 1
r 100.006897599 _21_ AGT  --- 728 cbr 532 [14a 15 14 800] ------- [20:2 21:0 32 21] [4] 1 1
s 100.958596134 _12_ AGT  --- 730 cbr 512 [0 0 0 0] ------- [12:2 14:0 32 0] [17] 0 2
r 100.964494784 _14_ AGT  --- 730 cbr 532 [14a e c 800] ------- [12:2 14:0 32 14] [17] 1 2
s 101.076461866 _8_ AGT  --- 734 cbr 512 [0 0 0 0] ------- [8:1 10:0 32 0] [15] 0 2
D 101.147045490 _20_ RTR  CBK 734 cbr 532 [14a a 14 800] ------- [8:1 10:0 31 10] [15] 1 2
s 101.328428504 _13_ AGT  --- 736 cbr 512 [0 0 0 0] ------- [13:2 14:1 32 0] [17] 0 3
r 101.334089459 _14_ AGT  --- 736 cbr 532 [14a e d 800] ------- [13:2 14:1 32 14] [17] 1 3
s 101.693032602 _16_ AGT  --- 739 cbr 512 [0 0 0 0] ------- [16:0 17:0 32 0] [19] 0 1
r 101.699130353 _17_ AGT  --- 739 cbr 532 [14a 11 10 800] ------- [16:0 17:0 32 17] [19] 1 1
s 103.082843964 _18_ AGT  --- 748 cbr 512 [0 0 0 0] ------- [18:1 20:0 32 0] [20] 0 2
r 103.088863182 _20_ AGT  --- 748 cbr 532 [14a 14 12 800] ------- [18:1 20:0 32 20] [20] 1 2
s 103.287663748 _2_ AGT  --- 749 cbr 512 [0 0 0 0] ------- [2:1 3:1 32 0] [6] 0 3
r 103.299828362 _3_ AGT  --- 749 cbr 532 [14a 3 2 800] ------- [2:1 3:1 32 3] [6] 1 3
s 103.339717324 _19_ AGT  --- 750 cbr 512 [0 0 0 0] ------- [19:1 20:1 32 0] [7] 0 3
D 103.378540521 _19_ RTR  CBK 750 cbr 532 [14a 12 13 800] ------- [19:1 20:1 32 18] [7] 0 3
r 103.385784514 _20_ AGT  --- 750 cbr 532 [14a 14 12 800] ------- [19:1 20:1 31 20] [7] 2 3
s 103.526368469 _13_ AGT  --- 754 cbr 512 [0 0 0 0] ------- [13:2 14:1 32 0] [18] 0 3
r 103.574100030 _14_ AGT  --- 754 cbr 532 [14a e d 800] ------- [13:2 14:1 32 14] [18] 1 3
s 103.618491984 _18_ AGT  --- 755 cbr 512 [0 0 0 0] ------- [18:0 19:0 32 0] [4] 0 3
r 103.624233308 _19_ AGT  --- 755 cbr 532 [14a 13 12 800] ------- [18:0 19:0 32 19] [4] 1 3
s 104.543291505 _9_ AGT  --- 762 cbr 512 [0 0 0 0] ------- [9:2 11:0 32 0] [18] 0 2
r 104.549390511 _11_ AGT  --- 762 cbr 532 [14a b 9 800] ------- [9:2 11:0 32 11] [18] 1 2
s 104.697362020 _8_ AGT  --- 764 cbr 512 [0 0 0 0] ------- [8:1 10:0 32 0] [16] 0 2
r 104.727489619 _10_ AGT  --- 764 cbr 532 [14a a 14 800] ------- [8:1 10:0 31 10] [16] 2 2
s 105.138937672 _20_ AGT  --- 766 cbr 512 [0 0 0 0] ------- [20:2 21:0 32 0] [5] 0 1
r 105.144516066 _21_ AGT  --- 766 cbr 532 [14a 15 14 800] ------- [20:2 21:0 32 21] [5] 1 1
s 105.784591519 _12_ AGT  --- 772 cbr 512 [0 0 0 0] ------- [12:2 14:0 32 0] [18] 0 2
r 105.790570168 _14_ AGT  --- 772 cbr 532 [14a e c 800] ------- [12:2 14:0 32 14] [18] 1 2
s 106.083234244 _12_ AGT  --- 774 cbr 512 [0 0 0 0] ------- [12:1 13:1 32 0] [0] 0 2
r 106.088834037 _13_ AGT  --- 774 cbr 532 [14a d c 800] ------- [12:1 13:1 32 13] [0] 1 2
s 106.786922584 _16_ AGT  --- 781 cbr 512 [0 0 0 0] ------- [16:0 17:0 32 0] [20] 0 1
r 106.793020335 _17_ AGT  --- 781 cbr 532 [14a 11 10 800] ------- [16:0 17:0 32 17] [20] 1 1
s 107.091505876 _18_ AGT  --- 783 cbr 512 [0 0 0 0] ------- [18:0 19:0 32 0] [5] 0 3
r 107.097247200 _19_ AGT  --- 783 cbr 532 [14a 13 12 800] ------- [18:0 19:0 32 19] [5] 1 3
s 107.632674033 _19_ AGT  --- 785 cbr 512 [0 0 0 0] ------- [19:1 20:1 32 0] [8] 0 3
r 107.644894574 _20_ AGT  --- 785 cbr 532 [14a 14 12 800] ------- [19:1 20:1 31 20] [8] 2 3
s 107.797297232 _13_ AGT  --- 787 cbr 512 [0 0 0 0] ------- [13:2 14:1 32 0] [19] 0 3
r 107.803298187 _14_ AGT  --- 787 cbr 532 [14a e d 800] ------- [13:2 14:1 32 14] [19] 1 3
s 108.041722497 _12_ AGT  --- 789 cbr 512 [0 0 0 0] ------- [12:2 14:0 32 0] [19] 0 2
r 108.047681146 _14_ AGT  --- 789 cbr 532 [14a e c 800] ------- [12:2 14:0 32 14] [19] 1 2
s 108.381413183 _12_ AGT  --- 790 cbr 512 [0 0 0 0] ------- [12:1 13:1 32 0] [1] 0 2
r 108.387192976 _13_ AGT  --- 790 cbr 532 [14a d c 800] ------- [12:1 13:1 32 13] [1] 1 2
s 108.537856060 _20_ AGT  --- 791 cbr 512 [0 0 0 0] ------- [20:2 21:0 32 0] [6] 0 1
r 108.543594454 _21_ AGT  --- 791 cbr 532 [14a 15 14 800] ------- [20:2 21:0 32 21] [6] 1 1
s 108.568693390 _2_ AGT  --- 792 cbr 512 [0 0 0 0] ------- [2:1 3:1 32 0] [7] 0 3
r 108.574294558 _3_ AGT  --- 792 cbr 532 [14a 3 2 800] ------- [2:1 3:1 32 3] [7] 1 3
s 109.015297745 _18_ AGT  --- 794 cbr 512 [0 0 0 0] ------- [18:1 20:0 32 0] [21] 0 2
r 109.020976963 _20_ AGT  --- 794 cbr 532 [14a 14 12 800] ------- [18:1 20:0 32 20] [21] 1 2
s 109.225281091 _9_ AGT  --- 796 cbr 512 [0 0 0 0] ------- [9:2 11:0 32 0] [19] 0 2
r 109.231020098 _11_ AGT  --- 796 cbr 532 [14a b 9 800] ------- [9:2 11:0 32 11] [19] 1 2
s 110.052417605 _11_ AGT  --- 798 cbr 512 [0 0 0 0] ------- [11:3 13:0 32 0] [0] 0 3
r 110.067854739 _13_ AGT  --- 798 cbr 532 [14a d 16 800] ------- [11:3 13:0 31 13] [0] 2 3
s 110.205879885 _8_ AGT  --- 799 cbr 512 [0 0 0 0] ------- [8:1 10:0 32 0] [17] 0 2
r 110.333733965 _10_ AGT  --- 799 cbr 532 [14a a 14 800] ------- [8:1 10:0 31 10] [17] 2 2
s 110.690034021 _18_ AGT  --- 800 cbr 512 [0 0 0 0] ------- [18:0 19:0 32 0] [6] 0 3
r 110.697107345 _19_ AGT  --- 800 cbr 532 [14a 13 12 800] ------- [18:0 19:0 32 19] [6] 1 3
s 111.043109302 _16_ AGT  --- 801 cbr 512 [0 0 0 0] ------- [16:0 17:0 32 0] [21] 0 1
r 111.049047054 _17_ AGT  --- 801 cbr 532 [14a 11 10 800] ------- [16:0 17:0 32 17] [21] 1 1
s 111.785675043 _18_ AGT  --- 802 cbr 512 [0 0 0 0] ------- [18:1 20:0 32 0] [22] 0 2
r 111.791254261 _20_ AGT  --- 802 cbr 532 [14a 14 12 800] ------- [18:1 20:0 32 20] [22] 1 2
s 112.188215907 _11_ AGT  --- 803 cbr 512 [0 0 0 0] ------- [11:3 13:0 32 0] [1] 0 3
r 112.200094522 _13_ AGT  --- 803 cbr 532 [14a d 16 800] ------- [11:3 13:0 31 13] [1] 2 3
s 112.653224618 _13_ AGT  --- 807 cbr 512 [0 0 0 0] ------- [13:2 14:1 32 0] [20] 0 3
r 112.673370690 _14_ AGT  --- 807 cbr 532 [14a e 4 800] ------- [13:2 14:1 31 14] [20] 2 3
s 112.950170975 _9_ AGT  --- 808 cbr 512 [0 0 0 0] ------- [9:2 11:0 32 0] [20] 0 2
r 112.963583987 _11_ AGT  --- 808 cbr 532 [14a b 9 800] ------- [9:2 11:0 32 11] [20] 1 2
s 113.017477370 _2_ AGT  --- 809 cbr 512 [0 0 0 0] ------- [2:1 3:1 32 0] [8] 0 3
r 113.023498539 _3_ AGT  --- 809 cbr 532 [14a 3 2 800] ------- [2:1 3:1 32 3] [8] 1 3
s 113.047339512 _19_ AGT  --- 810 cbr 512 [0 0 0 0] ------- [19:1 20:1 32 0] [9] 0 3
r 113.053000790 _20_ AGT  --- 810 cbr 532 [14a 14 13 800] ------- [19:1 20:1 32 20] [9] 1 3
s 113.366182719 _12_ AGT  --- 813 cbr 512 [0 0 0 0] ------- [12:2 14:0 32 0] [20] 0 2
r 113.371781368 _14_ AGT  --- 813 cbr 532 [14a e c 800] ------- [12:2 14:0 32 14] [20] 1 2
s 113.455011452 _12_ AGT  --- 814 cbr 512 [0 0 0 0] ------- [12:1 13:1 32 0] [2] 0 2
r 113.460911245 _13_ AGT  --- 814 cbr 532 [14a d c 800] ------- [12:1 13:1 32 13] [2] 1 2
s 114.302709031 _16_ AGT  --- 820 cbr 512 [0 0 0 0] ------- [16:0 17:0 32 0] [22] 0 1
r 114.308206783 _17_ AGT  --- 820 cbr 532 [14a 11 10 800] ------- [16:0 17:0 32 17] [22] 1 1
s 114.323185529 _20_ AGT  --- 821 cbr 512 [0 0 0 0] ------- [20:2 21:0 32 0] [7] 0 1
r 114.328783922 _21_ AGT  --- 821 cbr 532 [14a 15 14 800] ------- [20:2 21:0 32 21] [7] 1 1
s 114.954407038 _11_ AGT  --- 824 cbr 512 [0 0 0 0] ------- [11:3 13:0 32 0] [2] 0 3
r 114.966305654 _13_ AGT  --- 824 cbr 532 [14a d 16 800] ------- [11:3 13:0 31 13] [2] 2 3
s 115.203313765 _8_ AGT  --- 826 cbr 512 [0 0 0 0] ------- [8:1 10:0 32 0] [18] 0 2
s 115.408122848 _18_ AGT  --- 828 cbr 512 [0 0 0 0] ------- [18:0 19:0 32 0] [7] 0 3
r 115.425771721 _19_ AGT  --- 828 cbr 532 [14a 13 12 800] ------- [18:0 19:0 32 19] [7] 1 3
s 115.855162032 _12_ AGT  --- 832 cbr 512 [0 0 0 0] ------- [12:2 14:0 32 0] [21] 0 2
r 115.861160681 _14_ AGT  --- 832 cbr 532 [14a e c 800] ------- [12:2 14:0 32 14] [21] 1 2
s 115.928639769 _18_ AGT  --- 835 cbr 512 [0 0 0 0] ------- [18:1 20:0 32 0] [23] 0 2