M 0.0 nn:50 x:670 y:670 rp:dsdv
M 0.0 sc:../mobility/scene/scen-670x670-50-600-20-0 cp:../mobility/scene/cbr-50-20-4-512 seed:0.0
M 0.0 prop:Propagation/Shadowing ant:Antenna/OmniAntenna
s 22.465028699 _18_ AGT  --- 219 cbr 512 [0 0 0 0] ------- [18:1 20:0 32 0] [0] 0 2
r 22.473439206 _20_ AGT  --- 219 cbr 532 [13a 14 12 800] ------- [18:1 20:0 32 20] [0] 1 2
s 23.789830405 _16_ AGT  --- 230 cbr 512 [0 0 0 0] ------- [16:0 17:0 32 0] [0] 0 1
s 27.429258251 _16_ AGT  --- 335 cbr 512 [0 0 0 0] ------- [16:0 17:0 32 0] [1] 0 1
D 27.429258251 _16_ IFQ  ARP 230 cbr 532 [0 0 10 800] ------- [16:0 17:0 32 17] [0] 0 1
r 27.437805337 _17_ AGT  --- 335 cbr 532 [13a 11 10 800] ------- [16:0 17:0 32 17] [1] 1 1
s 27.726860786 _18_ AGT  --- 339 cbr 512 [0 0 0 0] ------- [18:1 20:0 32 0] [1] 0 2
r 27.732552003 _20_ AGT  --- 339 cbr 532 [13a 14 12 800] ------- [18:1 20:0 32 20] [1] 1 2
s 29.031284241 _9_ AGT  --- 342 cbr 512 [0 0 0 0] ------- [9:2 11:0 32 0] [0] 0 2
r 29.039654257 _11_ AGT  --- 342 cbr 532 [13a b 9 800] ------- [9:2 11:0 32 11] [0] 1 2
s 29.805542408 _18_ AGT  --- 343 cbr 512 [0 0 0 0] ------- [18:1 20:0 32 0] [2] 0 2
r 29.811293625 _20_ AGT  --- 343 cbr 532 [13a 14 12 800] ------- [18:1 20:0 32 20] [2] 1 2
s 30.208176370 _13_ AGT  --- 344 cbr 512 [0 0 0 0] ------- [13:2 14:1 32 0] [0] 0 3
r 30.264792145 _14_ AGT  --- 344 cbr 532 [13a e d 800] ------- [13:2 14:1 32 14] [0] 1 3
s 31.399719754 _16_ AGT  --- 345 cbr 512 [0 0 0 0] ------- [16:0 17:0 32 0] [2] 0 1
r 31.405169505 _17_ AGT  --- 345 cbr 532 [13a 11 10 800] ------- [16:0 17:0 32 17] [2] 1 1
s 33.331732143 _13_ AGT  --- 346 cbr 512 [0 0 0 0] ------- [13:2 14:1 32 0] [1] 0 3
r 33.343208402 _14_ AGT  --- 346 cbr 532 [13a e d 800] ------- [13:2 14:1 32 14] [1] 1 3
s 33.440564002 _18_ AGT  --- 347 cbr 512 [0 0 0 0] ------- [18:1 20:0 32 0] [3] 0 2
r 33.452953364 _20_ AGT  --- 347 cbr 532 [13a 14 12 800] ------- [18:1 20:0 32 20] [3] 1 2
s 34.977895067 _9_ AGT  --- 348 cbr 512 [0 0 0 0] ------- [9:2 11:0 32 0] [1] 0 2
r 34.983686074 _11_ AGT  --- 348 cbr 532 [13a b 9 800] ------- [9:2 11:0 32 11] [1] 1 2
s 36.386503601 _13_ AGT  --- 359 cbr 512 [0 0 0 0] ------- [13:2 14:1 32 0] [2] 0 3
r 36.398275859 _14_ AGT  --- 359 cbr 532 [13a e d 800] ------- [13:2 14:1 32 14] [2] 1 3
s 36.526254328 _18_ AGT  --- 360 cbr 512 [0 0 0 0] ------- [18:1 20:0 32 0] [4] 0 2
r 36.531765546 _20_ AGT  --- 360 cbr 532 [13a 14 12 800] ------- [18:1 20:0 32 20] [4] 1 2
s 36.661913867 _16_ AGT  --- 362 cbr 512 [0 0 0 0] ------- [16:0 17:0 32 0] [3] 0 1
r 36.667683618 _17_ AGT  --- 362 cbr 532 [13a 11 10 800] ------- [16:0 17:0 32 17] [3] 1 1
s 37.144644894 _9_ AGT  --- 367 cbr 512 [0 0 0 0] ------- [9:2 11:0 32 0] [2] 0 2
r 37.150495901 _11_ AGT  --- 367 cbr 532 [13a b 9 800] ------- [9:2 11:0 32 11] [2] 1 2
s 37.953153224 _8_ AGT  --- 376 cbr 512 [0 0 0 0] ------- [8:1 10:0 32 0] [0] 0 2
r 37.961667519 _10_ AGT  --- 376 cbr 532 [13a a 8 800] ------- [8:1 10:0 32 10] [0] 1 2
s 39.765188015 _16_ AGT  --- 392 cbr 512 [0 0 0 0] ------- [16:0 17:0 32 0] [4] 0 1
r 39.770797766 _17_ AGT  --- 392 cbr 532 [13a 11 10 800] ------- [16:0 17:0 32 17] [4] 1 1
s 40.917940000 _12_ AGT  --- 399 cbr 512 [0 0 0 0] ------- [12:2 14:0 32 0] [0] 0 2
s 40.922144502 _9_ AGT  --- 400 cbr 512 [0 0 0 0] ------- [9:2 11:0 32 0] [3] 0 2
r 40.929295820 _11_ AGT  --- 400 cbr 532 [13a b 9 800] ------- [9:2 11:0 32 11] [3] 1 2
r 40.935651961 _14_ AGT  --- 399 cbr 532 [13a e c 800] ------- [12:2 14:0 32 14] [0] 1 2
s 41.822257982 _18_ AGT  --- 406 cbr 512 [0 0 0 0] ------- [18:1 20:0 32 0] [5] 0 2
r 41.828209200 _20_ AGT  --- 406 cbr 532 [13a 14 12 800] ------- [18:1 20:0 32 20] [5] 1 2
s 41.931091907 _13_ AGT  --- 408 cbr 512 [0 0 0 0] ------- [13:2 14:1 32 0] [3] 0 3
r 41.962006772 _14_ AGT  --- 408 cbr 532 [13a e d 800] ------- [13:2 14:1 32 14] [3] 1 3
s 42.398229634 _8_ AGT  --- 409 cbr 512 [0 0 0 0] ------- [8:1 10:0 32 0] [1] 0 2
r 42.404082474 _10_ AGT  --- 409 cbr 532 [13a a 8 800] ------- [8:1 10:0 32 10] [1] 1 2
s 42.520901100 _16_ AGT  --- 410 cbr 512 [0 0 0 0] ------- [16:0 17:0 32 0] [5] 0 1
r 42.526690851 _17_ AGT  --- 410 cbr 532 [13a 11 10 800] ------- [16:0 17:0 32 17] [5] 1 1
s 44.976740834 _9_ AGT  --- 411 cbr 512 [0 0 0 0] ------- [9:2 11:0 32 0] [4] 0 2
r 44.982451841 _11_ AGT  --- 411 cbr 532 [13a b 9 800] ------- [9:2 11:0 32 11] [4] 1 2
s 45.597848410 _12_ AGT  --- 412 cbr 512 [0 0 0 0] ------- [12:2 14:0 32 0] [1] 0 2
r 45.603719059 _14_ AGT  --- 412 cbr 532 [13a e c 800] ------- [12:2 14:0 32 14] [1] 1 2
s 45.956387431 _8_ AGT  --- 413 cbr 512 [0 0 0 0] ------- [8:1 10:0 32 0] [2] 0 2
r 45.962060271 _10_ AGT  --- 413 cbr 532 [13a a 8 800] ------- [8:1 10:0 32 10] [2] 1 2
s 46.189721667 _16_ AGT  --- 414 cbr 512 [0 0 0 0] ------- [16:0 17:0 32 0] [6] 0 1
r 46.195591418 _17_ AGT  --- 414 cbr 532 [13a 11 10 800] ------- [16:0 17:0 32 17] [6] 1 1
s 47.211801516 _18_ AGT  --- 416 cbr 512 [0 0 0 0] ------- [18:1 20:0 32 0] [6] 0 2
r 47.217552733 _20_ AGT  --- 416 cbr 532 [13a 14 12 800] ------- [18:1 20:0 32 20] [6] 1 2
s 47.754213428 _13_ AGT  --- 418 cbr 512 [0 0 0 0] ------- [13:2 14:1 32 0] [4] 0 3
r 47.759926383 _14_ AGT  --- 418 cbr 532 [13a e d 800] ------- [13:2 14:1 32 14] [4] 1 3
s 48.735832633 _9_ AGT  --- 421 cbr 512 [0 0 0 0] ------- [9:2 11:0 32 0] [5] 0 2
r 48.741583640 _11_ AGT  --- 421 cbr 532 [13a b 9 800] ------- [9:2 11:0 32 11] [5] 1 2
s 48.901402226 _12_ AGT  --- 423 cbr 512 [0 0 0 0] ------- [12:2 14:0 32 0] [2] 0 2
r 48.907192876 _14_ AGT  --- 423 cbr 532 [13a e c 800] ------- [12:2 14:0 32 14] [2] 1 2
s 48.934742476 _16_ AGT  --- 424 cbr 512 [0 0 0 0] ------- [16:0 17:0 32 0] [7] 0 1
r 48.940212227 _17_ AGT  --- 424 cbr 532 [13a 11 10 800] ------- [16:0 17:0 32 17] [7] 1 1
s 49.350356082 _8_ AGT  --- 427 cbr 512 [0 0 0 0] ------- [8:1 10:0 32 0] [3] 0 2
r 49.357188923 _10_ AGT  --- 427 cbr 532 [13a a 8 800] ------- [8:1 10:0 32 10] [3] 1 2
s 50.303851510 _13_ AGT  --- 436 cbr 512 [0 0 0 0] ------- [13:2 14:1 32 0] [5] 0 3
r 50.325109445 _14_ AGT  --- 436 cbr 532 [13a e 23 800] ------- [13:2 14:1 31 14] [5] 2 3
s 51.377745739 _12_ AGT  --- 452 cbr 512 [0 0 0 0] ------- [12:2 14:0 32 0] [3] 0 2
r 51.383276388 _14_ AGT  --- 452 cbr 532 [13a e c 800] ------- [12:2 14:0 32 14] [3] 1 2
s 52.268048496 _9_ AGT  --- 459 cbr 512 [0 0 0 0] ------- [9:2 11:0 32 0] [6] 0 2
r 52.274039503 _11_ AGT  --- 459 cbr 532 [13a b 9 800] ------- [9:2 11:0 32 11] [6] 1 2
s 52.315093673 _13_ AGT  --- 461 cbr 512 [0 0 0 0] ------- [13:2 14:1 32 0] [6] 0 3
r 52.327942597 _14_ AGT  --- 461 cbr 532 [13a e 23 800] ------- [13:2 14:1 31 14] [6] 2 3
s 53.054155889 _18_ AGT  --- 466 cbr 512 [0 0 0 0] ------- [18:1 20:0 32 0] [7] 0 2
r 53.059727106 _20_ AGT  --- 466 cbr 532 [13a 14 12 800] ------- [18:1 20:0 32 20] [7] 1 2
s 53.621148962 _16_ AGT  --- 468 cbr 512 [0 0 0 0] ------- [16:0 17:0 32 0] [8] 0 1
r 53.626838713 _17_ AGT  --- 468 cbr 532 [13a 11 10 800] ------- [16:0 17:0 32 17] [8] 1 1
s 54.585165398 _8_ AGT  --- 473 cbr 512 [0 0 0 0] ------- [8:1 10:0 32 0] [4] 0 2
r 54.601061466 _10_ AGT  --- 473 cbr 532 [13a a 8 800] ------- [8:1 10:0 32 10] [4] 1 2
s 56.274495525 _16_ AGT  --- 478 cbr 512 [0 0 0 0] ------- [16:0 17:0 32 0] [9] 0 1
r 56.280225277 _17_ AGT  --- 478 cbr 532 [13a 11 10 800] ------- [16:0 17:0 32 17] [9] 1 1
s 57.107896467 _12_ AGT  --- 479 cbr 512 [0 0 0 0] ------- [12:2 14:0 32 0] [4] 0 2
r 57.113367116 _14_ AGT  --- 479 cbr 532 [13a e c 800] ------- [12:2 14:0 32 14] [4] 1 2
s 57.438807922 _18_ AGT  --- 480 cbr 512 [0 0 0 0] ------- [18:1 20:0 32 0] [8] 0 2
r 57.444379140 _20_ AGT  --- 480 cbr 532 [13a 14 12 800] ------- [18:1 20:0 32 20] [8] 1 2
s 57.674631318 _13_ AGT  --- 481 cbr 512 [0 0 0 0] ------- [13:2 14:1 32 0] [7] 0 3
r 57.680084273 _14_ AGT  --- 481 cbr 532 [13a e d 800] ------- [13:2 14:1 32 14] [7] 1 3
s 58.095156812 _8_ AGT  --- 482 cbr 512 [0 0 0 0] ------- [8:1 10:0 32 0] [5] 0 2
r 58.101149652 _10_ AGT  --- 482 cbr 532 [13a a 8 800] ------- [8:1 10:0 32 10] [5] 1 2
s 58.207561320 _9_ AGT  --- 483 cbr 512 [0 0 0 0] ------- [9:2 11:0 32 0] [7] 0 2
r 58.213432327 _11_ AGT  --- 483 cbr 532 [13a b 9 800] ------- [9:2 11:0 32 11] [7] 1 2
s 59.587392799 _16_ AGT  --- 484 cbr 512 [0 0 0 0] ------- [16:0 17:0 32 0] [10] 0 1
r 59.592982550 _17_ AGT  --- 484 cbr 532 [13a 11 10 800] ------- [16:0 17:0 32 17] [10] 1 1
s 61.595572087 _13_ AGT  --- 492 cbr 512 [0 0 0 0] ------- [13:2 14:1 32 0] [8] 0 3
r 61.601085042 _14_ AGT  --- 492 cbr 532 [13a e d 800] ------- [13:2 14:1 32 14] [8] 1 3
D 61.682723297 _13_ RTR  CBK 492 cbr 532 [13a e d 800] ------- [13:2 14:1 32 14] [8] 0 3
s 62.006141572 _9_ AGT  --- 497 cbr 512 [0 0 0 0] ------- [9:2 11:0 32 0] [8] 0 2
r 62.014850047 _11_ AGT  --- 497 cbr 532 [13a b 9 800] ------- [9:2 11:0 32 11] [8] 1 2
s 62.474324623 _12_ AGT  --- 500 cbr 512 [0 0 0 0] ------- [12:2 14:0 32 0] [5] 0 2
r 62.480095273 _14_ AGT  --- 500 cbr 532 [13a e c 800] ------- [12:2 14:0 32 14] [5] 1 2
s 62.520638965 _16_ AGT  --- 501 cbr 512 [0 0 0 0] ------- [16:0 17:0 32 0] [11] 0 1
r 62.526248716 _17_ AGT  --- 501 cbr 532 [13a 11 10 800] ------- [16:0 17:0 32 17] [11] 1 1
s 63.216680966 _18_ AGT  --- 503 cbr 512 [0 0 0 0] ------- [18:1 20:0 32 0] [9] 0 2
r 63.222392183 _20_ AGT  --- 503 cbr 532 [13a 14 12 800] ------- [18:1 20:0 32 20] [9] 1 2
s 63.611897387 _8_ AGT  --- 504 cbr 512 [0 0 0 0] ------- [8:1 10:0 32 0] [6] 0 2
r 63.617370228 _10_ AGT  --- 504 cbr 532 [13a a 8 800] ------- [8:1 10:0 32 10] [6] 1 2
s 66.117834013 _16_ AGT  --- 527 cbr 512 [0 0 0 0] ------- [16:0 17:0 32 0] [12] 0 1
r 66.123503764 _17_ AGT  --- 527 cbr 532 [13a 11 10 800] ------- [16:0 17:0 32 17] [12] 1 1
s 66.924795686 _8_ AGT  --- 534 cbr 512 [0 0 0 0] ------- [8:1 10:0 32 0] [7] 0 2
r 66.935891754 _10_ AGT  --- 534 cbr 532 [13a a 8 800] ------- [8:1 10:0 32 10] [7] 1 2
s 67.529420923 _13_ AGT  --- 537 cbr 512 [0 0 0 0] ------- [13:2 14:1 32 0] [9] 0 3
r 67.540417182 _14_ AGT  --- 537 cbr 532 [13a e d 800] ------- [13:2 14:1 32 14] [9] 1 3
s 67.732600953 _9_ AGT  --- 539 cbr 512 [0 0 0 0] ------- [9:2 11:0 32 0] [9] 0 2
r 67.738451960 _11_ AGT  --- 539 cbr 532 [13a b 9 800] ------- [9:2 11:0 32 11] [9] 1 2
s 68.162490848 _16_ AGT  --- 543 cbr 512 [0 0 0 0] ------- [16:0 17:0 32 0] [13] 0 1
r 68.168220599 _17_ AGT  --- 543 cbr 532 [13a 11 10 800] ------- [16:0 17:0 32 17] [13] 1 1
s 68.303342355 _12_ AGT  --- 545 cbr 512 [0 0 0 0] ------- [12:2 14:0 32 0] [6] 0 2
r 68.308873004 _14_ AGT  --- 545 cbr 532 [13a e c 800] ------- [12:2 14:0 32 14] [6] 1 2
s 69.086615794 _18_ AGT  --- 547 cbr 512 [0 0 0 0] ------- [18:1 20:0 32 0] [10] 0 2
r 69.092147011 _20_ AGT  --- 547 cbr 532 [13a 14 12 800] ------- [18:1 20:0 32 20] [10] 1 2
s 69.740163882 _13_ AGT  --- 548 cbr 512 [0 0 0 0] ------- [13:2 14:1 32 0] [10] 0 3
r 69.748976837 _14_ AGT  --- 548 cbr 532 [13a e d 800] ------- [13:2 14:1 32 14] [10] 1 3
s 70.913531273 _12_ AGT  --- 549 cbr 512 [0 0 0 0] ------- [12:2 14:0 32 0] [7] 0 2
r 70.919181922 _14_ AGT  --- 549 cbr 532 [13a e c 800] ------- [12:2 14:0 32 14] [7] 1 2
s 71.575887708 _18_ AGT  --- 550 cbr 512 [0 0 0 0] ------- [18:1 20:0 32 0] [11] 0 2
r 71.581598925 _20_ AGT  --- 550 cbr 532 [13a 14 12 800] ------- [18:1 20:0 32 20] [11] 1 2
s 72.646622336 _9_ AGT  --- 555 cbr 512 [0 0 0 0] ------- [9:2 11:0 32 0] [10] 0 2
r 72.652413343 _11_ AGT  --- 555 cbr 532 [13a b 9 800] ------- [9:2 11:0 32 11] [10] 1 2
s 72.709146821 _8_ AGT  --- 556 cbr 512 [0 0 0 0] ------- [8:1 10:0 32 0] [8] 0 2
r 72.714939662 _10_ AGT  --- 556 cbr 532 [13a a 8 800] ------- [8:1 10:0 32 10] [8] 1 2
s 73.257660256 _16_ AGT  --- 558 cbr 512 [0 0 0 0] ------- [16:0 17:0 32 0] [14] 0 1
r 73.263190007 _17_ AGT  --- 558 cbr 532 [13a 11 10 800] ------- [16:0 17:0 32 17] [14] 1 1
s 73.951554267 _18_ AGT  --- 560 cbr 512 [0 0 0 0] ------- [18:1 20:0 32 0] [12] 0 2
r 73.957005485 _20_ AGT  --- 560 cbr 532 [13a 14 12 800] ------- [18:1 20:0 32 20] [12] 1 2
s 73.994347898 _13_ AGT  --- 561 cbr 512 [0 0 0 0] ------- [13:2 14:1 32 0] [11] 0 3
r 74.000380853 _14_ AGT  --- 561 cbr 532 [13a e d 800] ------- [13:2 14:1 32 14] [11] 1 3
s 74.196164847 _12_ AGT  --- 563 cbr 512 [0 0 0 0] ------- [12:2 14:0 32 0] [8] 0 2
r 74.201715497 _14_ AGT  --- 563 cbr 532 [13a e c 800] ------- [12:2 14:0 32 14] [8] 1 2
s 75.477956243 _19_ AGT  --- 568 cbr 512 [0 0 0 0] ------- [19:1 20:1 32 0] [0] 0 3
s 76.548770023 _18_ AGT  --- 574 cbr 512 [0 0 0 0] ------- [18:1 20:0 32 0] [13] 0 2
r 76.554581241 _20_ AGT  --- 574 cbr 532 [13a 14 12 800] ------- [18:1 20:0 32 20] [13] 1 2
s 77.527740705 _8_ AGT  --- 582 cbr 512 [0 0 0 0] ------- [8:1 10:0 32 0] [9] 0 2
r 77.539612773 _10_ AGT  --- 582 cbr 532 [13a a 8 800] ------- [8:1 10:0 32 10] [9] 1 2
s 77.549343553 _19_ AGT  --- 583 cbr 512 [0 0 0 0] ------- [19:1 20:1 32 0] [1] 0 3
D 77.549343553 _19_ IFQ  ARP 568 cbr 532 [0 0 13 800] ------- [19:1 20:1 32 20] [0] 0 3
s 77.624996361 _9_ AGT  --- 584 cbr 512 [0 0 0 0] ------- [9:2 11:0 32 0] [11] 0 2
r 77.631047368 _11_ AGT  --- 584 cbr 532 [13a b 9 800] ------- [9:2 11:0 32 11] [11] 1 2
s 78.004830177 _12_ AGT  --- 588 cbr 512 [0 0 0 0] ------- [12:2 14:0 32 0] [9] 0 2
r 78.010660826 _14_ AGT  --- 588 cbr 532 [13a e c 800] ------- [12:2 14:0 32 14] [9] 1 2
s 79.137873167 _16_ AGT  --- 600 cbr 512 [0 0 0 0] ------- [16:0 17:0 32 0] [15] 0 1
r 79.143682918 _17_ AGT  --- 600 cbr 532 [13a 11 10 800] ------- [16:0 17:0 32 17] [15] 1 1
s 79.244485271 _18_ AGT  --- 603 cbr 512 [0 0 0 0] ------- [18:1 20:0 32 0] [14] 0 2
r 79.256734633 _20_ AGT  --- 603 cbr 532 [13a 14 12 800] ------- [18:1 20:0 32 20] [14] 1 2
s 79.371595438 _2_ AGT  --- 606 cbr 512 [0 0 0 0] ------- [2:1 3:1 32 0] [0] 0 3
r 79.384741389 _3_ AGT  --- 606 cbr 532 [13a 3 2 800] ------- [2:1 3:1 32 3] [0] 1 3
s 79.773473139 _13_ AGT  --- 609 cbr 512 [0 0 0 0] ------- [13:2 14:1 32 0] [12] 0 3
r 79.781046094 _14_ AGT  --- 609 cbr 532 [13a e d 800] ------- [13:2 14:1 32 14] [12] 1 3
s 81.422643484 _9_ AGT  --- 615 cbr 512 [0 0 0 0] ------- [9:2 11:0 32 0] [12] 0 2
r 81.428134491 _11_ AGT  --- 615 cbr 532 [13a b 9 800] ------- [9:2 11:0 32 11] [12] 1 2
s 81.628595049 _8_ AGT  --- 617 cbr 512 [0 0 0 0] ------- [8:1 10:0 32 0] [10] 0 2
r 81.635287890 _10_ AGT  --- 617 cbr 532 [13a a 8 800] ------- [8:1 10:0 32 10] [10] 1 2
s 82.343244341 _19_ AGT  --- 618 cbr 512 [0 0 0 0] ------- [19:1 20:1 32 0] [2] 0 3
D 82.343244341 _19_ IFQ  ARP 583 cbr 532 [0 0 13 800] ------- [19:1 20:1 32 20] [1] 0 3
r 82.352499657 _20_ AGT  --- 618 cbr 532 [13a 14 13 800] ------- [19:1 20:1 32 20] [2] 1 3
s 83.048693229 _12_ AGT  --- 620 cbr 512 [0 0 0 0] ------- [12:2 14:0 32 0] [10] 0 2
r 83.054563878 _14_ AGT  --- 620 cbr 532 [13a e c 800] ------- [12:2 14:0 32 14] [10] 1 2
s 83.357680238 _18_ AGT  --- 621 cbr 512 [0 0 0 0] ------- [18:1 20:0 32 0] [15] 0 2
r 83.363651456 _20_ AGT  --- 621 cbr 532 [13a 14 12 800] ------- [18:1 20:0 32 20] [15] 1 2
s 83.602217233 _18_ AGT  --- 622 cbr 512 [0 0 0 0] ------- [18:0 19:0 32 0] [0] 0 3
r 83.621613655 _19_ AGT  --- 622 cbr 532 [13a 13 12 800] ------- [18:0 19:0 32 19] [0] 1 3
s 83.644134711 _20_ AGT  --- 623 cbr 512 [0 0 0 0] ------- [20:2 21:0 32 0] [0] 0 1
r 83.661442186 _21_ AGT  --- 623 cbr 532 [13a 15 14 800] ------- [20:2 21:0 32 21] [0] 1 1
s 83.855407105 _16_ AGT  --- 624 cbr 512 [0 0 0 0] ------- [16:0 17:0 32 0] [16] 0 1
r 83.874232472 _17_ AGT  --- 624 cbr 532 [13a 11 27 800] ------- [16:0 17:0 31 17] [16] 2 1
s 84.741433132 _2_ AGT  --- 626 cbr 512 [0 0 0 0] ------- [2:1 3:1 32 0] [1] 0 3
r 84.748806301 _3_ AGT  --- 626 cbr 532 [13a 3 2 800] ------- [2:1 3:1 32 3] [1] 1 3
s 85.130201347 _13_ AGT  --- 629 cbr 512 [0 0 0 0] ------- [13:2 14:1 32 0] [13] 0 3
r 85.161772909 _14_ AGT  --- 629 cbr 532 [13a e d 800] ------- [13:2 14:1 32 14] [13] 1 3
s 85.504344695 _9_ AGT  --- 631 cbr 512 [0 0 0 0] ------- [9:2 11:0 32 0] [13] 0 2
r 85.509815702 _11_ AGT  --- 631 cbr 532 [13a b 9 800] ------- [9:2 11:0 32 11] [13] 1 2
s 86.149343404 _18_ AGT  --- 634 cbr 512 [0 0 0 0] ------- [18:0 19:0 32 0] [1] 0 3
r 86.186207491 _19_ AGT  --- 634 cbr 532 [13a 13 12 800] ------- [18:0 19:0 32 19] [1] 1 3
s 86.775019017 _8_ AGT  --- 635 cbr 512 [0 0 0 0] ------- [8:1 10:0 32 0] [11] 0 2
r 86.781351858 _10_ AGT  --- 635 cbr 532 [13a a 8 800] ------- [8:1 10:0 32 10] [11] 1 2
s 86.799996666 _18_ AGT  --- 636 cbr 512 [0 0 0 0] ------- [18:1 20:0 32 0] [16] 0 2
r 86.811706029 _20_ AGT  --- 636 cbr 532 [13a 14 12 800] ------- [18:1 20:0 32 20] [16] 1 2
s 87.019734891 _19_ AGT  --- 639 cbr 512 [0 0 0 0] ------- [19:1 20:1 32 0] [3] 0 3
r 87.025408169 _20_ AGT  --- 639 cbr 532 [13a 14 13 800] ------- [19:1 20:1 32 20] [3] 1 3
s 87.613642665 _12_ AGT  --- 640 cbr 512 [0 0 0 0] ------- [12:2 14:0 32 0] [11] 0 2
r 87.619313315 _14_ AGT  --- 640 cbr 532 [13a e c 800] ------- [12:2 14:0 32 14] [11] 1 2
s 87.931215901 _20_ AGT  --- 641 cbr 512 [0 0 0 0] ------- [20:2 21:0 32 0] [1] 0 1
r 87.936766294 _21_ AGT  --- 641 cbr 532 [13a 15 14 800] ------- [20:2 21:0 32 21] [1] 1 1
s 88.316179285 _9_ AGT  --- 644 cbr 512 [0 0 0 0] ------- [9:2 11:0 32 0] [14] 0 2
r 88.321670292 _11_ AGT  --- 644 cbr 532 [13a b 9 800] ------- [9:2 11:0 32 11] [14] 1 2
s 88.607749035 _16_ AGT  --- 646 cbr 512 [0 0 0 0] ------- [16:0 17:0 32 0] [17] 0 1
r 88.613478786 _17_ AGT  --- 646 cbr 532 [13a 11 10 800] ------- [16:0 17:0 32 17] [17] 1 1
s 88.687429183 _2_ AGT  --- 647 cbr 512 [0 0 0 0] ------- [2:1 3:1 32 0] [2] 0 3
r 88.693202352 _3_ AGT  --- 647 cbr 532 [13a 3 2 800] ------- [2:1 3:1 32 3] [2] 1 3
s 89.169236531 _8_ AGT  --- 649 cbr 512 [0 0 0 0] ------- [8:1 10:0 32 0] [12] 0 2
r 89.174969372 _10_ AGT  --- 649 cbr 532 [13a a 8 800] ------- [8:1 10:0 32 10] [12] 1 2
s 89.676853197 _13_ AGT  --- 654 cbr 512 [0 0 0 0] ------- [13:2 14:1 32 0] [14] 0 3
r 89.682906152 _14_ AGT  --- 654 cbr 532 [13a e d 800] ------- [13:2 14:1 32 14] [14] 1 3
D 89.754968624 _13_ RTR  CBK 654 cbr 532 [13a e d 800] ------- [13:2 14:1 32 14] [14] 0 3
s 90.196432382 _18_ AGT  --- 657 cbr 512 [0 0 0 0] ------- [18:0 19:0 32 0] [2] 0 3
r 90.209245255 _19_ AGT  --- 657 cbr 532 [13a 13 12 800] ------- [18:0 19:0 32 19] [2] 1 3
s 90.343156394 _9_ AGT  --- 658 cbr 512 [0 0 0 0] ------- [9:2 11:0 32 0] [15] 0 2
r 90.348987401 _11_ AGT  --- 658 cbr 532 [13a b 9 800] ------- [9:2 11:0 32 11] [15] 1 2
s 90.614920344 _18_ AGT  --- 660 cbr 512 [0 0 0 0] ------- [18:1 20:0 32 0] [17] 0 2
r 90.620431562 _20_ AGT  --- 660 cbr 532 [13a 14 12 800] ------- [18:1 20:0 32 20] [17] 1 2
s 90.947915596 _20_ AGT  --- 666 cbr 512 [0 0 0 0] ------- [20:2 21:0 32 0] [2] 0 1
r 90.953905989 _21_ AGT  --- 666 cbr 532 [13a 15 14 800] ------- [20:2 21:0 32 21] [2] 1 1
s 91.164989107 _19_ AGT  --- 668 cbr 512 [0 0 0 0] ------- [19:1 20:1 32 0] [4] 0 3
r 91.170982385 _20_ AGT  --- 668 cbr 532 [13a 14 13 800] ------- [19:1 20:1 32 20] [4] 1 3
s 92.197315865 _2_ AGT  --- 681 cbr 512 [0 0 0 0] ------- [2:1 3:1 32 0] [3] 0 3
r 92.204889033 _3_ AGT  --- 681 cbr 532 [13a 3 2 800] ------- [2:1 3:1 32 3] [3] 1 3
s 92.325187650 _16_ AGT  --- 683 cbr 512 [0 0 0 0] ------- [16:0 17:0 32 0] [18] 0 1
r 92.331077401 _17_ AGT  --- 683 cbr 532 [13a 11 10 800] ------- [16:0 17:0 32 17] [18] 1 1
s 92.810585103 _12_ AGT  --- 687 cbr 512 [0 0 0 0] ------- [12:2 14:0 32 0] [12] 0 2
r 92.816395752 _14_ AGT  --- 687 cbr 532 [13a e c 800] ------- [12:2 14:0 32 14] [12] 1 2
s 92.899015809 _18_ AGT  --- 689 cbr 512 [0 0 0 0] ------- [18:1 20:0 32 0] [18] 0 2
r 92.904927027 _20_ AGT  --- 689 cbr 532 [13a 14 12 800] ------- [18:1 20:0 32 20] [18] 1 2
s 93.141731154 _13_ AGT  --- 691 cbr 512 [0 0 0 0] ------- [13:2 14:1 32 0] [15] 0 3
r 93.147744109 _14_ AGT  --- 691 cbr 532 [13a e d 800] ------- [13:2 14:1 32 14] [15] 1 3
s 93.338884645 _20_ AGT  --- 692 cbr 512 [0 0 0 0] ------- [20:2 21:0 32 0] [3] 0 1
r 93.344355039 _21_ AGT  --- 692 cbr 532 [13a 15 14 800] ------- [20:2 21:0 32 21] [3] 1 1
s 93.676785603 _8_ AGT  --- 694 cbr 512 [0 0 0 0] ------- [8:1 10:0 32 0] [13] 0 2
r 93.682598444 _10_ AGT  --- 694 cbr 532 [13a a 8 800] ------- [8:1 10:0 32 10] [13] 1 2
s 94.112686625 _19_ AGT  --- 699 cbr 512 [0 0 0 0] ------- [19:1 20:1 32 0] [5] 0 3
r 94.125459421 _20_ AGT  --- 699 cbr 532 [13a 14 13 800] ------- [19:1 20:1 32 20] [5] 1 3
s 94.720591213 _9_ AGT  --- 701 cbr 512 [0 0 0 0] ------- [9:2 11:0 32 0] [16] 0 2
r 94.726502220 _11_ AGT  --- 701 cbr 532 [13a b 9 800] ------- [9:2 11:0 32 11] [16] 1 2
s 95.031473875 _16_ AGT  --- 702 cbr 512 [0 0 0 0] ------- [16:0 17:0 32 0] [19] 0 1
r 95.037443627 _17_ AGT  --- 702 cbr 532 [13a 11 10 800] ------- [16:0 17:0 32 17] [19] 1 1
s 95.429884233 _12_ AGT  --- 703 cbr 512 [0 0 0 0] ------- [12:2 14:0 32 0] [13] 0 2
r 95.435554882 _14_ AGT  --- 703 cbr 532 [13a e c 800] ------- [12:2 14:0 32 14] [13] 1 2
s 95.457339789 _18_ AGT  --- 704 cbr 512 [0 0 0 0] ------- [18:0 19:0 32 0] [3] 0 3
r 95.475756662 _19_ AGT  --- 704 cbr 532 [13a 13 12 800] ------- [18:0 19:0 32 19] [3] 1 3
s 96.178912568 _8_ AGT  --- 705 cbr 512 [0 0 0 0] ------- [8:1 10:0 32 0] [14] 0 2
r 96.184705409 _10_ AGT  --- 705 cbr 532 [13a a 8 800] ------- [8:1 10:0 32 10] [14] 1 2
s 96.328761206 _2_ AGT  --- 706 cbr 512 [0 0 0 0] ------- [2:1 3:1 32 0] [4] 0 3
r 96.340613820 _3_ AGT  --- 706 cbr 532 [13a 3 2 800] ------- [2:1 3:1 32 3] [4] 1 3
s 97.193627883 _18_ AGT  --- 709 cbr 512 [0 0 0 0] ------- [18:1 20:0 32 0] [19] 0 2
r 97.199319100 _20_ AGT  --- 709 cbr 532 [13a 14 12 800] ------- [18:1 20:0 32 20] [19] 1 2
s 97.420795951 _20_ AGT  --- 710 cbr 512 [0 0 0 0] ------- [20:2 21:0 32 0] [4] 0 1
r 97.426386345 _21_ AGT  --- 710 cbr 532 [13a 15 14 800] ------- [20:2 21:0 32 21] [4] 1 1
s 98.031648446 _19_ AGT  --- 714 cbr 512 [0 0 0 0] ------- [19:1 20:1 32 0] [6] 0 3
r 98.043981243 _20_ AGT  --- 714 cbr 532 [13a 14 13 800] ------- [19:1 20:1 32 20] [6] 1 3
s 98.418719477 _18_ AGT  --- 716 cbr 512 [0 0 0 0] ------- [18:0 19:0 32 0] [4] 0 3
r 98.424412801 _19_ AGT  --- 716 cbr 532 [13a 13 12 800] ------- [18:0 19:0 32 19] [4] 1 3
s 98.823221925 _13_ AGT  --- 717 cbr 512 [0 0 0 0] ------- [13:2 14:1 32 0] [16] 0 3
r 98.829034880 _14_ AGT  --- 717 cbr 532 [13a e d 800] ------- [13:2 14:1 32 14] [16] 1 3
s 99.045775421 _16_ AGT  --- 718 cbr 512 [0 0 0 0] ------- [16:0 17:0 32 0] [20] 0 1
r 99.051705172 _17_ AGT  --- 718 cbr 532 [13a 11 10 800] ------- [16:0 17:0 32 17] [20] 1 1
s 99.386020659 _9_ AGT  --- 719 cbr 512 [0 0 0 0] ------- [9:2 11:0 32 0] [17] 0 2
r 99.391571665 _11_ AGT  --- 719 cbr 532 [13a b 9 800] ------- [9:2 11:0 32 11] [17] 1 2
s 99.506425044 _18_ AGT  --- 721 cbr 512 [0 0 0 0] ------- [18:1 20:0 32 0] [20] 0 2
r 99.511916261 _20_ AGT  --- 721 cbr 532 [13a 14 12 800] ------- [18:1 20:0 32 20] [20] 1 2
s 99.711901025 _12_ AGT  --- 722 cbr 512 [0 0 0 0] ------- [12:2 14:0 32 0] [14] 0 2
r 99.717771674 _14_ AGT  --- 722 cbr 532 [13a e c 800] ------- [12:2 14:0 32 14] [14] 1 2
s 101.174180867 _8_ AGT  --- 728 cbr 512 [0 0 0 0] ------- [8:1 10:0 32 0] [15] 0 2
r 101.179693708 _10_ AGT  --- 728 cbr 532 [13a a 8 800] ------- [8:1 10:0 32 10] [15] 1 2
s 101.271735412 _20_ AGT  --- 730 cbr 512 [0 0 0 0] ------- [20:2 21:0 32 0] [5] 0 1
r 101.277625806 _21_ AGT  --- 730 cbr 532 [13a 15 14 800] ------- [20:2 21:0 32 21] [5] 1 1
s 101.646018582 _2_ AGT  --- 731 cbr 512 [0 0 0 0] ------- [2:1 3:1 32 0] [5] 0 3
r 101.701278088 _3_ AGT  --- 731 cbr 532 [13a 3 2 800] ------- [2:1 3:1 32 3] [5] 1 3
s 101.995028202 _19_ AGT  --- 733 cbr 512 [0 0 0 0] ------- [19:1 20:1 32 0] [7] 0 3
r 102.000961480 _20_ AGT  --- 733 cbr 532 [13a 14 13 800] ------- [19:1 20:1 32 20] [7] 1 3
s 102.102451963 _12_ AGT  --- 734 cbr 512 [0 0 0 0] ------- [12:2 14:0 32 0] [15] 0 2
s 102.105409853 _9_ AGT  --- 735 cbr 512 [0 0 0 0] ------- [9:2 11:0 32 0] [18] 0 2
r 102.108482613 _14_ AGT  --- 734 cbr 532 [13a e c 800] ------- [12:2 14:0 32 14] [15] 1 2
r 102.114597999 _11_ AGT  --- 735 cbr 532 [13a b 9 800] ------- [9:2 11:0 32 11] [18] 1 2
s 102.296138330 _18_ AGT  --- 737 cbr 512 [0 0 0 0] ------- [18:0 19:0 32 0] [5] 0 3
r 102.310683469 _19_ AGT  --- 737 cbr 532 [13a 13 2a 800] ------- [18:0 19:0 31 19] [5] 2 3
s 103.300681707 _8_ AGT  --- 743 cbr 512 [0 0 0 0] ------- [8:1 10:0 32 0] [16] 0 2
r 103.316397776 _10_ AGT  --- 743 cbr 532 [13a a 8 800] ------- [8:1 10:0 32 10] [16] 1 2
s 103.997917738 _16_ AGT  --- 748 cbr 512 [0 0 0 0] ------- [16:0 17:0 32 0] [21] 0 1
s 103.998552734 _13_ AGT  --- 749 cbr 512 [0 0 0 0] ------- [13:2 14:1 32 0] [17] 0 3
r 104.003727489 _17_ AGT  --- 748 cbr 532 [13a 11 10 800] ------- [16:0 17:0 32 17] [21] 1 1
r 104.015545606 _14_ AGT  --- 749 cbr 532 [13a e d 800] ------- [13:2 14:1 32 14] [17] 1 3
s 104.463995959 _20_ AGT  --- 751 cbr 512 [0 0 0 0] ------- [20:2 21:0 32 0] [6] 0 1
r 104.469806353 _21_ AGT  --- 751 cbr 532 [13a 15 14 800] ------- [20:2 21:0 32 21] [6] 1 1
s 104.691499948 _18_ AGT  --- 752 cbr 512 [0 0 0 0] ------- [18:1 20:0 32 0] [21] 0 2
r 104.697231165 _20_ AGT  --- 752 cbr 532 [13a 14 12 800] ------- [18:1 20:0 32 20] [21] 1 2
s 105.379862973 _18_ AGT  --- 761 cbr 512 [0 0 0 0] ------- [18:0 19:0 32 0] [6] 0 3
r 105.397912820 _19_ AGT  --- 761 cbr 532 [13a 13 2a 800] ------- [18:0 19:0 31 19] [6] 2 3
s 105.665465465 _8_ AGT  --- 767 cbr 512 [0 0 0 0] ------- [8:1 10:0 32 0] [17] 0 2
r 105.671158306 _10_ AGT  --- 767 cbr 532 [13a a 8 800] ------- [8:1 10:0 32 10] [17] 1 2
s 105.819032317 _2_ AGT  --- 770 cbr 512 [0 0 0 0] ------- [2:1 3:1 32 0] [6] 0 3
r 105.825845485 _3_ AGT  --- 770 cbr 532 [13a 3 2 800] ------- [2:1 3:1 32 3] [6] 1 3
s 106.083234244 _12_ AGT  --- 772 cbr 512 [0 0 0 0] ------- [12:1 13:1 32 0] [0] 0 2
r 106.088746037 _13_ AGT  --- 772 cbr 532 [13a d c 800] ------- [12:1 13:1 32 13] [0] 1 2
s 106.510655488 _9_ AGT  --- 775 cbr 512 [0 0 0 0] ------- [9:2 11:0 32 0] [19] 0 2
r 106.516706495 _11_ AGT  --- 775 cbr 532 [13a b 9 800] ------- [9:2 11:0 32 11] [19] 1 2
s 106.709612166 _12_ AGT  --- 778 cbr 512 [0 0 0 0] ------- [12:2 14:0 32 0] [16] 0 2
r 106.715282816 _14_ AGT  --- 778 cbr 532 [13a e c 800] ------- [12:2 14:0 32 14] [16] 1 2
s 107.062871278 _18_ AGT  --- 779 cbr 512 [0 0 0 0] ------- [18:1 20:0 32 0] [22] 0 2
r 107.068502495 _20_ AGT  --- 779 cbr 532 [13a 14 12 800] ------- [18:1 20:0 32 20] [22] 1 2
s 107.770261050 _19_ AGT  --- 783 cbr 512 [0 0 0 0] ------- [19:1 20:1 32 0] [8] 0 3
r 107.784313847 _20_ AGT  --- 783 cbr 532 [13a 14 13 800] ------- [19:1 20:1 32 20] [8] 1 3
s 108.012404486 _13_ AGT  --- 785 cbr 512 [0 0 0 0] ------- [13:2 14:1 32 0] [18] 0 3
r 108.018977441 _14_ AGT  --- 785 cbr 532 [13a e d 800] ------- [13:2 14:1 32 14] [18] 1 3
s 109.138479357 _8_ AGT  --- 788 cbr 512 [0 0 0 0] ------- [8:1 10:0 32 0] [18] 0 2
r 109.150851425 _10_ AGT  --- 788 cbr 532 [13a a 8 800] ------- [8:1 10:0 32 10] [18] 1 2
s 109.193245980 _20_ AGT  --- 789 cbr 512 [0 0 0 0] ------- [20:2 21:0 32 0] [7] 0 1
r 109.199056374 _21_ AGT  --- 789 cbr 532 [13a 15 14 800] ------- [20:2 21:0 32 21] [7] 1 1
s 109.510527480 _18_ AGT  --- 790 cbr 512 [0 0 0 0] ------- [18:1 20:0 32 0] [23] 0 2
r 109.516558697 _20_ AGT  --- 790 cbr 532 [13a 14 12 800] ------- [18:1 20:0 32 20] [23] 1 2
s 109.598085708 _18_ AGT  --- 791 cbr 512 [0 0 0 0] ------- [18:0 19:0 32 0] [7] 0 3
r 109.611972592 _19_ AGT  --- 791 cbr 532 [13a 13 2a 800] ------- [18:0 19:0 31 19] [7] 2 3
s 109.953108341 _16_ AGT  --- 792 cbr 512 [0 0 0 0] ------- [16:0 17:0 32 0] [22] 0 1
r 109.959118092 _17_ AGT  --- 792 cbr 532 [13a 11 10 800] ------- [16:0 17:0 32 17] [22] 1 1
s 109.992662275 _9_ AGT  --- 793 cbr 512 [0 0 0 0] ------- [9:2 11:0 32 0] [20] 0 2
r 109.998673282 _11_ AGT  --- 793 cbr 532 [13a b 9 800] ------- [9:2 11:0 32 11] [20] 1 2
s 110.052417605 _11_ AGT  --- 794 cbr 512 [0 0 0 0] ------- [11:3 13:0 32 0] [0] 0 3
D 110.102149294 _11_ RTR  CBK 794 cbr 532 [13a d b 800] ------- [11:3 13:0 32 13] [0] 0 3
s 110.564557919 _2_ AGT  --- 798 cbr 512 [0 0 0 0] ------- [2:1 3:1 32 0] [7] 0 3
r 110.584085486 _3_ AGT  --- 798 cbr 532 [13a 3 7 800] ------- [2:1 3:1 31 3] [7] 2 3
s 111.561351974 _18_ AGT  --- 800 cbr 512 [0 0 0 0] ------- [18:1 20:0 32 0] [24] 0 2
r 111.567363191 _20_ AGT  --- 800 cbr 532 [13a 14 12 800] ------- [18:1 20:0 32 20] [24] 1 2
s 111.577198622 _12_ AGT  --- 801 cbr 512 [0 0 0 0] ------- [12:1 13:1 32 0] [1] 0 2
r 111.582830415 _13_ AGT  --- 801 cbr 532 [13a d c 800] ------- [12:1 13:1 32 13] [1] 1 2
s 111.586235463 _12_ AGT  --- 802 cbr 512 [0 0 0 0] ------- [12:2 14:0 32 0] [17] 0 2
r 111.591926112 _14_ AGT  --- 802 cbr 532 [13a e c 800] ------- [12:2 14:0 32 14] [17] 1 2
s 112.296111189 _11_ AGT  --- 803 cbr 512 [0 0 0 0] ------- [11:3 13:0 32 0] [1] 0 3
D 112.330100423 _11_ RTR  CBK 803 cbr 532 [13a d b 800] ------- [11:3 13:0 32 13] [1] 0 3
s 112.616975992 _16_ AGT  --- 807 cbr 512 [0 0 0 0] ------- [16:0 17:0 32 0] [23] 0 1
r 112.622485743 _17_ AGT  --- 807 cbr 532 [13a 11 10 800] ------- [16:0 17:0 32 17] [23] 1 1
s 113.031316558 _13_ AGT  --- 808 cbr 512 [0 0 0 0] ------- [13:2 14:1 32 0] [19] 0 3
r 113.043628816 _14_ AGT  --- 808 cbr 532 [13a e d 800] ------- [13:2 14:1 32 14] [19] 1 3
s 113.439249425 _19_ AGT  --- 811 cbr 512 [0 0 0 0] ------- [19:1 20:1 32 0] [9] 0 3
r 113.444922703 _20_ AGT  --- 811 cbr 532 [13a 14 13 800] ------- [19:1 20:1 32 20] [9] 1 3
s 113.569429177 _18_ AGT  --- 812 cbr 512 [0 0 0 0] ------- [18:1 20:0 32 0] [25] 0 2
r 113.575300394 _20_ AGT  --- 812 cbr 532 [13a 14 12 800] ------- [18:1 20:0 32 20] [25] 1 2
s 113.748578540 _18_ AGT  --- 813 cbr 512 [0 0 0 0] ------- [18:0 19:0 32 0] [8] 0 3
r 113.760645425 _19_ AGT  --- 813 cbr 532 [13a 13 2a 800] ------- [18:0 19:0 31 19] [8] 2 3
s 114.273710343 _20_ AGT  --- 815 cbr 512 [0 0 0 0] ------- [20:2 21:0 32 0] [8] 0 1
r 114.279400736 _21_ AGT  --- 815 cbr 532 [13a 15 14 800] ------- [20:2 21:0 32 21] [8] 1 1
s 114.319049481 _8_ AGT  --- 816 cbr 512 [0 0 0 0] ------- [8:1 10:0 32 0] [19] 0 2
r 114.326042322 _10_ AGT  --- 816 cbr 532 [13a a 8 800] ------- [8:1 10:0 32 10] [19] 1 2
s 114.841569465 _9_ AGT  --- 819 cbr 512 [0 0 0 0] ------- [9:2 11:0 32 0] [21] 0 2
r 114.847580472 _11_ AGT  --- 819 cbr 532 [13a b 9 800] ------- [9:2 11:0 32 11] [21] 1 2