n -t * -s 0  -x 143.43750921878001 -y 94.217567273200004 -Z 0 -z 20  -v circle -c green
n -t * -s 1  -x 304.65324424678403 -y 167.07632596983501 -Z 0 -z 20  -v circle -c green
n -t * -s 2  -x 81.810723227699 -y 152.82536050561001 -Z 0 -z 20  -v circle -c green
n -t * -s 3  -x 325.834153339995 -y 354.615563074325 -Z 0 -z 20  -v circle -c green
n -t * -s 4  -x 23.768638624379001 -y 159.50938100993099 -Z 0 -z 20  -v circle -c green
V -t * -v 1.0a5 -a 0
W -t * -x 670 -y 670
A -t * -n 1 -p 0 -o 0xffffffff -c 31 -a 1
A -t * -h 1 -m 2147483647 -s 0
+ -t 82.557023746 -s 2 -d -1 -p cbr -e 512 -c 2 -a 0 -i 0 -k AGT 
- -t 82.557023746 -s 2 -d -1 -p cbr -e 512 -c 2 -a 0 -i 0 -k AGT
h -t 82.557023746 -s 2 -d -1 -p cbr -e 512 -c 2 -a 0 -i 0 -k AGT
+ -t 82.557138746 -s 2 -d -1 -p AODV -e 102 -c 2 -a 0 -i 0 -k MAC 
- -t 82.557138746 -s 2 -d -1 -p AODV -e 102 -c 2 -a 0 -i 0 -k MAC
h -t 82.557138746 -s 2 -d -1 -p AODV -e 102 -c 2 -a 0 -i 0 -k MAC
r -t 82.557954941 -s 4 -d -1 -p AODV -e 48 -c 2 -a 0 -i 0 -k MAC
r -t 82.557955030 -s 0 -d -1 -p AODV -e 48 -c 2 -a 0 -i 0 -k MAC
r -t 82.557955491 -s 1 -d -1 -p AODV -e 48 -c 2 -a 0 -i 0 -k MAC
+ -t 82.559096168 -s 4 -d -1 -p AODV -e 102 -c 2 -a 0 -i 0 -k MAC 
- -t 82.559096168 -s 4 -d -1 -p AODV -e 102 -c 2 -a 0 -i 0 -k MAC
h -t 82.559096168 -s 4 -d -1 -p AODV -e 102 -c 2 -a 0 -i 0 -k MAC
r -t 82.559912362 -s 2 -d -1 -p AODV -e 48 -c 2 -a 0 -i 0 -k MAC
r -t 82.559912622 -s 0 -d -1 -p AODV -e 48 -c 2 -a 0 -i 0 -k MAC
+ -t 82.562706764 -s 0 -d -1 -p AODV -e 102 -c 2 -a 0 -i 0 -k MAC 
- -t 82.562706764 -s 0 -d -1 -p AODV -e 102 -c 2 -a 0 -i 0 -k MAC
h -t 82.562706764 -s 0 -d -1 -p AODV -e 102 -c 2 -a 0 -i 0 -k MAC
r -t 82.563523047 -s 2 -d -1 -p AODV -e 48 -c 2 -a 0 -i 0 -k MAC
r -t 82.563523218 -s 4 -d -1 -p AODV -e 48 -c 2 -a 0 -i 0 -k MAC
r -t 82.563523353 -s 1 -d -1 -p AODV -e 48 -c 2 -a 0 -i 0 -k MAC
+ -t 82.566307045 -s 1 -d -1 -p AODV -e 102 -c 2 -a 0 -i 0 -k MAC 
- -t 82.566307045 -s 1 -d -1 -p AODV -e 102 -c 2 -a 0 -i 0 -k MAC
h -t 82.566307045 -s 1 -d -1 -p AODV -e 102 -c 2 -a 0 -i 0 -k MAC
r -t 82.567123635 -s 0 -d -1 -p AODV -e 48 -c 2 -a 0 -i 0 -k MAC
r -t 82.567123674 -s 3 -d -1 -p AODV -e 48 -c 2 -a 0 -i 0 -k MAC
r -t 82.567123789 -s 2 -d -1 -p AODV -e 48 -c 2 -a 0 -i 0 -k MAC
+ -t 82.567243674 -s 3 -d -1 -p ARP -e 82 -c 2 -a 0 -i 0 -k MAC 
- -t 82.567243674 -s 3 -d -1 -p ARP -e 82 -c 2 -a 0 -i 0 -k MAC
h -t 82.567243674 -s 3 -d -1 -p ARP -e 82 -c 2 -a 0 -i 0 -k MAC
r -t 82.567900303 -s 1 -d -1 -p ARP -e 28 -c 2 -a 0 -i 0 -k MAC
+ -t 82.568130303 -s 1 -d -1 -p RTS -e 46 -c 2 -a 0 -i 0 -k MAC 
- -t 82.568130303 -s 1 -d -1 -p RTS -e 46 -c 2 -a 0 -i 0 -k MAC
h -t 82.568130303 -s 1 -d -1 -p RTS -e 46 -c 2 -a 0 -i 0 -k MAC
r -t 82.568498932 -s 3 -d -1 -p RTS -e 46 -c 2 -a 0 -i 0 -k MAC
+ -t 82.568508932 -s 3 -d -1 -p CTS -e 40 -c 2 -a 0 -i 0 -k MAC 
- -t 82.568508932 -s 3 -d -1 -p CTS -e 40 -c 2 -a 0 -i 0 -k MAC
h -t 82.568508932 -s 3 -d -1 -p CTS -e 40 -c 2 -a 0 -i 0 -k MAC
r -t 82.568829562 -s 1 -d -1 -p CTS -e 40 -c 2 -a 0 -i 0 -k MAC
+ -t 82.568839562 -s 1 -d -1 -p ARP -e 82 -c 2 -a 0 -i 0 -k MAC 
- -t 82.568839562 -s 1 -d -1 -p ARP -e 82 -c 2 -a 0 -i 0 -k MAC
h -t 82.568839562 -s 1 -d -1 -p ARP -e 82 -c 2 -a 0 -i 0 -k MAC
r -t 82.569496191 -s 3 -d -1 -p ARP -e 28 -c 2 -a 0 -i 0 -k MAC
+ -t 82.569506191 -s 3 -d -1 -p ACK -e 40 -c 2 -a 0 -i 0 -k MAC 
- -t 82.569506191 -s 3 -d -1 -p ACK -e 40 -c 2 -a 0 -i 0 -k MAC
h -t 82.569506191 -s 3 -d -1 -p ACK -e 40 -c 2 -a 0 -i 0 -k MAC
r -t 82.569826820 -s 1 -d -1 -p ACK -e 40 -c 2 -a 0 -i 0 -k MAC
+ -t 82.570236191 -s 3 -d -1 -p RTS -e 46 -c 2 -a 0 -i 0 -k MAC 
- -t 82.570236191 -s 3 -d -1 -p RTS -e 46 -c 2 -a 0 -i 0 -k MAC
h -t 82.570236191 -s 3 -d -1 -p RTS -e 46 -c 2 -a 0 -i 0 -k MAC
r -t 82.570604820 -s 1 -d -1 -p RTS -e 46 -c 2 -a 0 -i 0 -k MAC
+ -t 82.570614820 -s 1 -d -1 -p CTS -e 40 -c 2 -a 0 -i 0 -k MAC 
- -t 82.570614820 -s 1 -d -1 -p CTS -e 40 -c 2 -a 0 -i 0 -k MAC
h -t 82.570614820 -s 1 -d -1 -p CTS -e 40 -c 2 -a 0 -i 0 -k MAC
r -t 82.570935449 -s 3 -d -1 -p CTS -e 40 -c 2 -a 0 -i 0 -k MAC
+ -t 82.570945449 -s 3 -d 1 -p AODV -e 98 -c 2 -a 0 -i 0 -k MAC 
- -t 82.570945449 -s 3 -d 1 -p AODV -e 98 -c 2 -a 0 -i 0 -k MAC
h -t 82.570945449 -s 3 -d 1 -p AODV -e 98 -c 2 -a 0 -i 0 -k MAC
r -t 82.571730078 -s 1 -d 1 -p AODV -e 44 -c 2 -a 0 -i 0 -k MAC
+ -t 82.571740078 -s 1 -d -1 -p ACK -e 40 -c 2 -a 0 -i 0 -k MAC 
- -t 82.571740078 -s 1 -d -1 -p ACK -e 40 -c 2 -a 0 -i 0 -k MAC
h -t 82.571740078 -s 1 -d -1 -p ACK -e 40 -c 2 -a 0 -i 0 -k MAC
r -t 82.572060707 -s 3 -d -1 -p ACK -e 40 -c 2 -a 0 -i 0 -k MAC
+ -t 82.572470078 -s 1 -d -1 -p ARP -e 82 -c 2 -a 0 -i 0 -k MAC 
- -t 82.572470078 -s 1 -d -1 -p ARP -e 82 -c 2 -a 0 -i 0 -k MAC
h -t 82.572470078 -s 1 -d -1 -p ARP -e 82 -c 2 -a 0 -i 0 -k MAC
r -t 82.573126668 -s 0 -d -1 -p ARP -e 28 -c 2 -a 0 -i 0 -k MAC
r -t 82.573126707 -s 3 -d -1 -p ARP -e 28 -c 2 -a 0 -i 0 -k MAC
r -t 82.573126822 -s 2 -d -1 -p ARP -e 28 -c 2 -a 0 -i 0 -k MAC
+ -t 82.573661822 -s 2 -d -1 -p RTS -e 46 -c 2 -a 0 -i 0 -k MAC 
- -t 82.573661822 -s 2 -d -1 -p RTS -e 46 -c 2 -a 0 -i 0 -k MAC
h -t 82.573661822 -s 2 -d -1 -p RTS -e 46 -c 2 -a 0 -i 0 -k MAC
r -t 82.574030567 -s 1 -d -1 -p RTS -e 46 -c 2 -a 0 -i 0 -k MAC
+ -t 82.574040567 -s 1 -d -1 -p CTS -e 40 -c 2 -a 0 -i 0 -k MAC 
- -t 82.574040567 -s 1 -d -1 -p CTS -e 40 -c 2 -a 0 -i 0 -k MAC
h -t 82.574040567 -s 1 -d -1 -p CTS -e 40 -c 2 -a 0 -i 0 -k MAC
r -t 82.574361311 -s 2 -d -1 -p CTS -e 40 -c 2 -a 0 -i 0 -k MAC
+ -t 82.574371311 -s 2 -d -1 -p ARP -e 82 -c 2 -a 0 -i 0 -k MAC 
- -t 82.574371311 -s 2 -d -1 -p ARP -e 82 -c 2 -a 0 -i 0 -k MAC
h -t 82.574371311 -s 2 -d -1 -p ARP -e 82 -c 2 -a 0 -i 0 -k MAC
r -t 82.575028055 -s 1 -d -1 -p ARP -e 28 -c 2 -a 0 -i 0 -k MAC
+ -t 82.575038055 -s 1 -d -1 -p ACK -e 40 -c 2 -a 0 -i 0 -k MAC 
- -t 82.575038055 -s 1 -d -1 -p ACK -e 40 -c 2 -a 0 -i 0 -k MAC
h -t 82.575038055 -s 1 -d -1 -p ACK -e 40 -c 2 -a 0 -i 0 -k MAC
r -t 82.575358800 -s 2 -d -1 -p ACK -e 40 -c 2 -a 0 -i 0 -k MAC
+ -t 82.575748055 -s 1 -d -1 -p RTS -e 46 -c 2 -a 0 -i 0 -k MAC 
- -t 82.575748055 -s 1 -d -1 -p RTS -e 46 -c 2 -a 0 -i 0 -k MAC
h -t 82.575748055 -s 1 -d -1 -p RTS -e 46 -c 2 -a 0 -i 0 -k MAC
r -t 82.576116800 -s 2 -d -1 -p RTS -e 46 -c 2 -a 0 -i 0 -k MAC
+ -t 82.576126800 -s 2 -d -1 -p CTS -e 40 -c 2 -a 0 -i 0 -k MAC 
- -t 82.576126800 -s 2 -d -1 -p CTS -e 40 -c 2 -a 0 -i 0 -k MAC
h -t 82.576126800 -s 2 -d -1 -p CTS -e 40 -c 2 -a 0 -i 0 -k MAC
r -t 82.576447544 -s 1 -d -1 -p CTS -e 40 -c 2 -a 0 -i 0 -k MAC
+ -t 82.576457544 -s 1 -d 2 -p AODV -e 98 -c 2 -a 0 -i 0 -k MAC 
- -t 82.576457544 -s 1 -d 2 -p AODV -e 98 -c 2 -a 0 -i 0 -k MAC
h -t 82.576457544 -s 1 -d 2 -p AODV -e 98 -c 2 -a 0 -i 0 -k MAC
r -t 82.577242288 -s 2 -d 2 -p AODV -e 44 -c 2 -a 0 -i 0 -k MAC
+ -t 82.577252288 -s 2 -d -1 -p ACK -e 40 -c 2 -a 0 -i 0 -k MAC 
- -t 82.577252288 -s 2 -d -1 -p ACK -e 40 -c 2 -a 0 -i 0 -k MAC
h -t 82.577252288 -s 2 -d -1 -p ACK -e 40 -c 2 -a 0 -i 0 -k MAC
r -t 82.577573033 -s 1 -d -1 -p ACK -e 40 -c 2 -a 0 -i 0 -k MAC
+ -t 82.577822288 -s 2 -d -1 -p RTS -e 46 -c 2 -a 0 -i 0 -k MAC 
- -t 82.577822288 -s 2 -d -1 -p RTS -e 46 -c 2 -a 0 -i 0 -k MAC
h -t 82.577822288 -s 2 -d -1 -p RTS -e 46 -c 2 -a 0 -i 0 -k MAC
r -t 82.578191033 -s 1 -d -1 -p RTS -e 46 -c 2 -a 0 -i 0 -k MAC
+ -t 82.578201033 -s 1 -d -1 -p CTS -e 40 -c 2 -a 0 -i 0 -k MAC 
- -t 82.578201033 -s 1 -d -1 -p CTS -e 40 -c 2 -a 0 -i 0 -k MAC
h -t 82.578201033 -s 1 -d -1 -p CTS -e 40 -c 2 -a 0 -i 0 -k MAC
r -t 82.578521777 -s 2 -d -1 -p CTS -e 40 -c 2 -a 0 -i 0 -k MAC
+ -t 82.578531777 -s 2 -d 1 -p cbr -e 586 -c 2 -a 0 -i 0 -k MAC 
- -t 82.578531777 -s 2 -d 1 -p cbr -e 586 -c 2 -a 0 -i 0 -k MAC
h -t 82.578531777 -s 2 -d 1 -p cbr -e 586 -c 2 -a 0 -i 0 -k MAC
r -t 82.583220521 -s 1 -d 1 -p cbr -e 532 -c 2 -a 0 -i 0 -k MAC
+ -t 82.583230521 -s 1 -d -1 -p ACK -e 40 -c 2 -a 0 -i 0 -k MAC 
- -t 82.583230521 -s 1 -d -1 -p ACK -e 40 -c 2 -a 0 -i 0 -k MAC
h -t 82.583230521 -s 1 -d -1 -p ACK -e 40 -c 2 -a 0 -i 0 -k MAC
r -t 82.583551266 -s 2 -d -1 -p ACK -e 40 -c 2 -a 0 -i 0 -k MAC
+ -t 82.583640521 -s 1 -d -1 -p RTS -e 46 -c 2 -a 0 -i 0 -k MAC 
- -t 82.583640521 -s 1 -d -1 -p RTS -e 46 -c 2 -a 0 -i 0 -k MAC
h -t 82.583640521 -s 1 -d -1 -p RTS -e 46 -c 2 -a 0 -i 0 -k MAC
r -t 82.584009150 -s 3 -d -1 -p RTS -e 46 -c 2 -a 0 -i 0 -k MAC
+ -t 82.584019150 -s 3 -d -1 -p CTS -e 40 -c 2 -a 0 -i 0 -k MAC 
- -t 82.584019150 -s 3 -d -1 -p CTS -e 40 -c 2 -a 0 -i 0 -k MAC
h -t 82.584019150 -s 3 -d -1 -p CTS -e 40 -c 2 -a 0 -i 0 -k MAC
r -t 82.584339779 -s 1 -d -1 -p CTS -e 40 -c 2 -a 0 -i 0 -k MAC
+ -t 82.584349779 -s 1 -d 3 -p cbr -e 586 -c 2 -a 0 -i 0 -k MAC 
- -t 82.584349779 -s 1 -d 3 -p cbr -e 586 -c 2 -a 0 -i 0 -k MAC
h -t 82.584349779 -s 1 -d 3 -p cbr -e 586 -c 2 -a 0 -i 0 -k MAC
r -t 82.589038408 -s 3 -d 3 -p cbr -e 532 -c 2 -a 0 -i 0 -k MAC
+ -t 82.589048408 -s 3 -d -1 -p ACK -e 40 -c 2 -a 0 -i 0 -k MAC 
- -t 82.589048408 -s 3 -d -1 -p ACK -e 40 -c 2 -a 0 -i 0 -k MAC
h -t 82.589048408 -s 3 -d -1 -p ACK -e 40 -c 2 -a 0 -i 0 -k MAC
r -t 82.589063408 -s 3 -d 3 -p cbr -e 532 -c 2 -a 0 -i 0 -k AGT
r -t 82.589369038 -s 1 -d -1 -p ACK -e 40 -c 2 -a 0 -i 0 -k MAC
+ -t 83.557702901 -s 2 -d -1 -p cbr -e 512 -c 2 -a 0 -i 1 -k AGT 
- -t 83.557702901 -s 2 -d -1 -p cbr -e 512 -c 2 -a 0 -i 1 -k AGT
h -t 83.557702901 -s 2 -d -1 -p cbr -e 512 -c 2 -a 0 -i 1 -k AGT
+ -t 83.557957901 -s 2 -d -1 -p RTS -e 46 -c 2 -a 0 -i 0 -k MAC 
- -t 83.557957901 -s 2 -d -1 -p RTS -e 46 -c 2 -a 0 -i 0 -k MAC
h -t 83.557957901 -s 2 -d -1 -p RTS -e 46 -c 2 -a 0 -i 0 -k MAC
r -t 83.558326645 -s 1 -d -1 -p RTS -e 46 -c 2 -a 0 -i 0 -k MAC
+ -t 83.558336645 -s 1 -d -1 -p CTS -e 40 -c 2 -a 0 -i 0 -k MAC 
- -t 83.558336645 -s 1 -d -1 -p CTS -e 40 -c 2 -a 0 -i 0 -k MAC
h -t 83.558336645 -s 1 -d -1 -p CTS -e 40 -c 2 -a 0 -i 0 -k MAC
r -t 83.558657389 -s 2 -d -1 -p CTS -e 40 -c 2 -a 0 -i 0 -k MAC
+ -t 83.558667389 -s 2 -d 1 -p cbr -e 586 -c 2 -a 0 -i 1 -k MAC 
- -t 83.558667389 -s 2 -d 1 -p cbr -e 586 -c 2 -a 0 -i 1 -k MAC
h -t 83.558667389 -s 2 -d 1 -p cbr -e 586 -c 2 -a 0 -i 1 -k MAC
r -t 83.563356134 -s 1 -d 1 -p cbr -e 532 -c 2 -a 0 -i 1 -k MAC
+ -t 83.563366134 -s 1 -d -1 -p ACK -e 40 -c 2 -a 0 -i 0 -k MAC 
- -t 83.563366134 -s 1 -d -1 -p ACK -e 40 -c 2 -a 0 -i 0 -k MAC
h -t 83.563366134 -s 1 -d -1 -p ACK -e 40 -c 2 -a 0 -i 0 -k MAC
r -t 83.563686878 -s 2 -d -1 -p ACK -e 40 -c 2 -a 0 -i 0 -k MAC
+ -t 83.564316134 -s 1 -d -1 -p RTS -e 46 -c 2 -a 0 -i 0 -k MAC 
- -t 83.564316134 -s 1 -d -1 -p RTS -e 46 -c 2 -a 0 -i 0 -k MAC
h -t 83.564316134 -s 1 -d -1 -p RTS -e 46 -c 2 -a 0 -i 0 -k MAC
r -t 83.564684763 -s 3 -d -1 -p RTS -e 46 -c 2 -a 0 -i 0 -k MAC
+ -t 83.564694763 -s 3 -d -1 -p CTS -e 40 -c 2 -a 0 -i 0 -k MAC 
- -t 83.564694763 -s 3 -d -1 -p CTS -e 40 -c 2 -a 0 -i 0 -k MAC
h -t 83.564694763 -s 3 -d -1 -p CTS -e 40 -c 2 -a 0 -i 0 -k MAC
r -t 83.565015392 -s 1 -d -1 -p CTS -e 40 -c 2 -a 0 -i 0 -k MAC
+ -t 83.565025392 -s 1 -d 3 -p cbr -e 586 -c 2 -a 0 -i 1 -k MAC 
- -t 83.565025392 -s 1 -d 3 -p cbr -e 586 -c 2 -a 0 -i 1 -k MAC
h -t 83.565025392 -s 1 -d 3 -p cbr -e 586 -c 2 -a 0 -i 1 -k MAC
r -t 83.569714021 -s 3 -d 3 -p cbr -e 532 -c 2 -a 0 -i 1 -k MAC
+ -t 83.569724021 -s 3 -d -1 -p ACK -e 40 -c 2 -a 0 -i 0 -k MAC 
- -t 83.569724021 -s 3 -d -1 -p ACK -e 40 -c 2 -a 0 -i 0 -k MAC
h -t 83.569724021 -s 3 -d -1 -p ACK -e 40 -c 2 -a 0 -i 0 -k MAC
r -t 83.569739021 -s 3 -d 3 -p cbr -e 532 -c 2 -a 0 -i 1 -k AGT
r -t 83.570044650 -s 1 -d -1 -p ACK -e 40 -c 2 -a 0 -i 0 -k MAC
+ -t 85.489934773 -s 2 -d -1 -p cbr -e 512 -c 2 -a 0 -i 2 -k AGT 
- -t 85.489934773 -s 2 -d -1 -p cbr -e 512 -c 2 -a 0 -i 2 -k AGT
h -t 85.489934773 -s 2 -d -1 -p cbr -e 512 -c 2 -a 0 -i 2 -k AGT
+ -t 85.490049773 -s 2 -d -1 -p RTS -e 46 -c 2 -a 0 -i 0 -k MAC 
- -t 85.490049773 -s 2 -d -1 -p RTS -e 46 -c 2 -a 0 -i 0 -k MAC
h -t 85.490049773 -s 2 -d -1 -p RTS -e 46 -c 2 -a 0 -i 0 -k MAC
r -t 85.490418518 -s 1 -d -1 -p RTS -e 46 -c 2 -a 0 -i 0 -k MAC
+ -t 85.490428518 -s 1 -d -1 -p CTS -e 40 -c 2 -a 0 -i 0 -k MAC 
- -t 85.490428518 -s 1 -d -1 -p CTS -e 40 -c 2 -a 0 -i 0 -k MAC
h -t 85.490428518 -s 1 -d -1 -p CTS -e 40 -c 2 -a 0 -i 0 -k MAC
r -t 85.490749262 -s 2 -d -1 -p CTS -e 40 -c 2 -a 0 -i 0 -k MAC
+ -t 85.490759262 -s 2 -d 1 -p cbr -e 586 -c 2 -a 0 -i 2 -k MAC 
- -t 85.490759262 -s 2 -d 1 -p cbr -e 586 -c 2 -a 0 -i 2 -k MAC
h -t 85.490759262 -s 2 -d 1 -p cbr -e 586 -c 2 -a 0 -i 2 -k MAC
r -t 85.495448006 -s 1 -d 1 -p cbr -e 532 -c 2 -a 0 -i 2 -k MAC
+ -t 85.495458006 -s 1 -d -1 -p ACK -e 40 -c 2 -a 0 -i 0 -k MAC 
- -t 85.495458006 -s 1 -d -1 -p ACK -e 40 -c 2 -a 0 -i 0 -k MAC
h -t 85.495458006 -s 1 -d -1 -p ACK -e 40 -c 2 -a 0 -i 0 -k MAC
r -t 85.495778751 -s 2 -d -1 -p ACK -e 40 -c 2 -a 0 -i 0 -k MAC
+ -t 85.496128006 -s 1 -d -1 -p RTS -e 46 -c 2 -a 0 -i 0 -k MAC 
- -t 85.496128006 -s 1 -d -1 -p RTS -e 46 -c 2 -a 0 -i 0 -k MAC
h -t 85.496128006 -s 1 -d -1 -p RTS -e 46 -c 2 -a 0 -i 0 -k MAC
r -t 85.496496636 -s 3 -d -1 -p RTS -e 46 -c 2 -a 0 -i 0 -k MAC
+ -t 85.496506636 -s 3 -d -1 -p CTS -e 40 -c 2 -a 0 -i 0 -k MAC 
- -t 85.496506636 -s 3 -d -1 -p CTS -e 40 -c 2 -a 0 -i 0 -k MAC
h -t 85.496506636 -s 3 -d -1 -p CTS -e 40 -c 2 -a 0 -i 0 -k MAC
r -t 85.496827265 -s 1 -d -1 -p CTS -e 40 -c 2 -a 0 -i 0 -k MAC
+ -t 85.496837265 -s 1 -d 3 -p cbr -e 586 -c 2 -a 0 -i 2 -k MAC 
- -t 85.496837265 -s 1 -d 3 -p cbr -e 586 -c 2 -a 0 -i 2 -k MAC
h -t 85.496837265 -s 1 -d 3 -p cbr -e 586 -c 2 -a 0 -i 2 -k MAC
r -t 85.501525894 -s 3 -d 3 -p cbr -e 532 -c 2 -a 0 -i 2 -k MAC
+ -t 85.501535894 -s 3 -d -1 -p ACK -e 40 -c 2 -a 0 -i 0 -k MAC 
- -t 85.501535894 -s 3 -d -1 -p ACK -e 40 -c 2 -a 0 -i 0 -k MAC
h -t 85.501535894 -s 3 -d -1 -p ACK -e 40 -c 2 -a 0 -i 0 -k MAC
r -t 85.501550894 -s 3 -d 3 -p cbr -e 532 -c 2 -a 0 -i 2 -k AGT
r -t 85.501856523 -s 1 -d -1 -p ACK -e 40 -c 2 -a 0 -i 0 -k MAC
+ -t 86.972386029 -s 2 -d -1 -p cbr -e 512 -c 2 -a 0 -i 3 -k AGT 
- -t 86.972386029 -s 2 -d -1 -p cbr -e 512 -c 2 -a 0 -i 3 -k AGT
h -t 86.972386029 -s 2 -d -1 -p cbr -e 512 -c 2 -a 0 -i 3 -k AGT
+ -t 86.972741029 -s 2 -d -1 -p RTS -e 46 -c 2 -a 0 -i 0 -k MAC 
- -t 86.972741029 -s 2 -d -1 -p RTS -e 46 -c 2 -a 0 -i 0 -k MAC
h -t 86.972741029 -s 2 -d -1 -p RTS -e 46 -c 2 -a 0 -i 0 -k MAC
r -t 86.973109774 -s 1 -d -1 -p RTS -e 46 -c 2 -a 0 -i 0 -k MAC
+ -t 86.973119774 -s 1 -d -1 -p CTS -e 40 -c 2 -a 0 -i 0 -k MAC 
- -t 86.973119774 -s 1 -d -1 -p CTS -e 40 -c 2 -a 0 -i 0 -k MAC
h -t 86.973119774 -s 1 -d -1 -p CTS -e 40 -c 2 -a 0 -i 0 -k MAC
r -t 86.973440518 -s 2 -d -1 -p CTS -e 40 -c 2 -a 0 -i 0 -k MAC
+ -t 86.973450518 -s 2 -d 1 -p cbr -e 586 -c 2 -a 0 -i 3 -k MAC 
- -t 86.973450518 -s 2 -d 1 -p cbr -e 586 -c 2 -a 0 -i 3 -k MAC
h -t 86.973450518 -s 2 -d 1 -p cbr -e 586 -c 2 -a 0 -i 3 -k MAC
r -t 86.978139262 -s 1 -d 1 -p cbr -e 532 -c 2 -a 0 -i 3 -k MAC
+ -t 86.978149262 -s 1 -d -1 -p ACK -e 40 -c 2 -a 0 -i 0 -k MAC 
- -t 86.978149262 -s 1 -d -1 -p ACK -e 40 -c 2 -a 0 -i 0 -k MAC
h -t 86.978149262 -s 1 -d -1 -p ACK -e 40 -c 2 -a 0 -i 0 -k MAC
r -t 86.978470007 -s 2 -d -1 -p ACK -e 40 -c 2 -a 0 -i 0 -k MAC
+ -t 86.978719262 -s 1 -d -1 -p RTS -e 46 -c 2 -a 0 -i 0 -k MAC 
- -t 86.978719262 -s 1 -d -1 -p RTS -e 46 -c 2 -a 0 -i 0 -k MAC
h -t 86.978719262 -s 1 -d -1 -p RTS -e 46 -c 2 -a 0 -i 0 -k MAC
r -t 86.979087892 -s 3 -d -1 -p RTS -e 46 -c 2 -a 0 -i 0 -k MAC
+ -t 86.979097892 -s 3 -d -1 -p CTS -e 40 -c 2 -a 0 -i 0 -k MAC 
- -t 86.979097892 -s 3 -d -1 -p CTS -e 40 -c 2 -a 0 -i 0 -k MAC
h -t 86.979097892 -s 3 -d -1 -p CTS -e 40 -c 2 -a 0 -i 0 -k MAC
r -t 86.979418521 -s 1 -d -1 -p CTS -e 40 -c 2 -a 0 -i 0 -k MAC
+ -t 86.979428521 -s 1 -d 3 -p cbr -e 586 -c 2 -a 0 -i 3 -k MAC 
- -t 86.979428521 -s 1 -d 3 -p cbr -e 586 -c 2 -a 0 -i 3 -k MAC
h -t 86.979428521 -s 1 -d 3 -p cbr -e 586 -c 2 -a 0 -i 3 -k MAC
r -t 86.984117150 -s 3 -d 3 -p cbr -e 532 -c 2 -a 0 -i 3 -k MAC
+ -t 86.984127150 -s 3 -d -1 -p ACK -e 40 -c 2 -a 0 -i 0 -k MAC 
- -t 86.984127150 -s 3 -d -1 -p ACK -e 40 -c 2 -a 0 -i 0 -k MAC
h -t 86.984127150 -s 3 -d -1 -p ACK -e 40 -c 2 -a 0 -i 0 -k MAC
r -t 86.984142150 -s 3 -d 3 -p cbr -e 532 -c 2 -a 0 -i 3 -k AGT
r -t 86.984447779 -s 1 -d -1 -p ACK -e 40 -c 2 -a 0 -i 0 -k MAC
+ -t 88.783424184 -s 2 -d -1 -p cbr -e 512 -c 2 -a 0 -i 4 -k AGT 
- -t 88.783424184 -s 2 -d -1 -p cbr -e 512 -c 2 -a 0 -i 4 -k AGT
h -t 88.783424184 -s 2 -d -1 -p cbr -e 512 -c 2 -a 0 -i 4 -k AGT
+ -t 88.783699184 -s 2 -d -1 -p RTS -e 46 -c 2 -a 0 -i 0 -k MAC 
- -t 88.783699184 -s 2 -d -1 -p RTS -e 46 -c 2 -a 0 -i 0 -k MAC
h -t 88.783699184 -s 2 -d -1 -p RTS -e 46 -c 2 -a 0 -i 0 -k MAC
r -t 88.784067928 -s 1 -d -1 -p RTS -e 46 -c 2 -a 0 -i 0 -k MAC
+ -t 88.784077928 -s 1 -d -1 -p CTS -e 40 -c 2 -a 0 -i 0 -k MAC 
- -t 88.784077928 -s 1 -d -1 -p CTS -e 40 -c 2 -a 0 -i 0 -k MAC
h -t 88.784077928 -s 1 -d -1 -p CTS -e 40 -c 2 -a 0 -i 0 -k MAC
r -t 88.784398672 -s 2 -d -1 -p CTS -e 40 -c 2 -a 0 -i 0 -k MAC
+ -t 88.784408672 -s 2 -d 1 -p cbr -e 586 -c 2 -a 0 -i 4 -k MAC 
- -t 88.784408672 -s 2 -d 1 -p cbr -e 586 -c 2 -a 0 -i 4 -k MAC
h -t 88.784408672 -s 2 -d 1 -p cbr -e 586 -c 2 -a 0 -i 4 -k MAC
r -t 88.789097417 -s 1 -d 1 -p cbr -e 532 -c 2 -a 0 -i 4 -k MAC
+ -t 88.789107417 -s 1 -d -1 -p ACK -e 40 -c 2 -a 0 -i 0 -k MAC 
- -t 88.789107417 -s 1 -d -1 -p ACK -e 40 -c 2 -a 0 -i 0 -k MAC
h -t 88.789107417 -s 1 -d -1 -p ACK -e 40 -c 2 -a 0 -i 0 -k MAC
r -t 88.789428161 -s 2 -d -1 -p ACK -e 40 -c 2 -a 0 -i 0 -k MAC
+ -t 88.790057417 -s 1 -d -1 -p RTS -e 46 -c 2 -a 0 -i 0 -k MAC 
- -t 88.790057417 -s 1 -d -1 -p RTS -e 46 -c 2 -a 0 -i 0 -k MAC
h -t 88.790057417 -s 1 -d -1 -p RTS -e 46 -c 2 -a 0 -i 0 -k MAC
r -t 88.790426046 -s 3 -d -1 -p RTS -e 46 -c 2 -a 0 -i 0 -k MAC
+ -t 88.790436046 -s 3 -d -1 -p CTS -e 40 -c 2 -a 0 -i 0 -k MAC 
- -t 88.790436046 -s 3 -d -1 -p CTS -e 40 -c 2 -a 0 -i 0 -k MAC
h -t 88.790436046 -s 3 -d -1 -p CTS -e 40 -c 2 -a 0 -i 0 -k MAC
r -t 88.790756675 -s 1 -d -1 -p CTS -e 40 -c 2 -a 0 -i 0 -k MAC
+ -t 88.790766675 -s 1 -d 3 -p cbr -e 586 -c 2 -a 0 -i 4 -k MAC 
- -t 88.790766675 -s 1 -d 3 -p cbr -e 586 -c 2 -a 0 -i 4 -k MAC
h -t 88.790766675 -s 1 -d 3 -p cbr -e 586 -c 2 -a 0 -i 4 -k MAC
r -t 88.795455304 -s 3 -d 3 -p cbr -e 532 -c 2 -a 0 -i 4 -k MAC
+ -t 88.795465304 -s 3 -d -1 -p ACK -e 40 -c 2 -a 0 -i 0 -k MAC 
- -t 88.795465304 -s 3 -d -1 -p ACK -e 40 -c 2 -a 0 -i 0 -k MAC
h -t 88.795465304 -s 3 -d -1 -p ACK -e 40 -c 2 -a 0 -i 0 -k MAC
r -t 88.795480304 -s 3 -d 3 -p cbr -e 532 -c 2 -a 0 -i 4 -k AGT
r -t 88.795785933 -s 1 -d -1 -p ACK -e 40 -c 2 -a 0 -i 0 -k MAC
+ -t 91.675954090 -s 2 -d -1 -p cbr -e 512 -c 2 -a 0 -i 5 -k AGT 
- -t 91.675954090 -s 2 -d -1 -p cbr -e 512 -c 2 -a 0 -i 5 -k AGT
h -t 91.675954090 -s 2 -d -1 -p cbr -e 512 -c 2 -a 0 -i 5 -k AGT
+ -t 91.676529090 -s 2 -d -1 -p RTS -e 46 -c 2 -a 0 -i 0 -k MAC 
- -t 91.676529090 -s 2 -d -1 -p RTS -e 46 -c 2 -a 0 -i 0 -k MAC
h -t 91.676529090 -s 2 -d -1 -p RTS -e 46 -c 2 -a 0 -i 0 -k MAC
r -t 91.676897835 -s 1 -d -1 -p RTS -e 46 -c 2 -a 0 -i 0 -k MAC
+ -t 91.676907835 -s 1 -d -1 -p CTS -e 40 -c 2 -a 0 -i 0 -k MAC 
- -t 91.676907835 -s 1 -d -1 -p CTS -e 40 -c 2 -a 0 -i 0 -k MAC
h -t 91.676907835 -s 1 -d -1 -p CTS -e 40 -c 2 -a 0 -i 0 -k MAC
r -t 91.677228579 -s 2 -d -1 -p CTS -e 40 -c 2 -a 0 -i 0 -k MAC
+ -t 91.677238579 -s 2 -d 1 -p cbr -e 586 -c 2 -a 0 -i 5 -k MAC 
- -t 91.677238579 -s 2 -d 1 -p cbr -e 586 -c 2 -a 0 -i 5 -k MAC
h -t 91.677238579 -s 2 -d 1 -p cbr -e 586 -c 2 -a 0 -i 5 -k MAC
r -t 91.681927323 -s 1 -d 1 -p cbr -e 532 -c 2 -a 0 -i 5 -k MAC
+ -t 91.681937323 -s 1 -d -1 -p ACK -e 40 -c 2 -a 0 -i 0 -k MAC 
- -t 91.681937323 -s 1 -d -1 -p ACK -e 40 -c 2 -a 0 -i 0 -k MAC
h -t 91.681937323 -s 1 -d -1 -p ACK -e 40 -c 2 -a 0 -i 0 -k MAC
r -t 91.682258068 -s 2 -d -1 -p ACK -e 40 -c 2 -a 0 -i 0 -k MAC
+ -t 91.682587323 -s 1 -d -1 -p RTS -e 46 -c 2 -a 0 -i 0 -k MAC 
- -t 91.682587323 -s 1 -d -1 -p RTS -e 46 -c 2 -a 0 -i 0 -k MAC
h -t 91.682587323 -s 1 -d -1 -p RTS -e 46 -c 2 -a 0 -i 0 -k MAC
r -t 91.682955952 -s 3 -d -1 -p RTS -e 46 -c 2 -a 0 -i 0 -k MAC
+ -t 91.682965952 -s 3 -d -1 -p CTS -e 40 -c 2 -a 0 -i 0 -k MAC 
- -t 91.682965952 -s 3 -d -1 -p CTS -e 40 -c 2 -a 0 -i 0 -k MAC
h -t 91.682965952 -s 3 -d -1 -p CTS -e 40 -c 2 -a 0 -i 0 -k MAC
r -t 91.683286582 -s 1 -d -1 -p CTS -e 40 -c 2 -a 0 -i 0 -k MAC
+ -t 91.683296582 -s 1 -d 3 -p cbr -e 586 -c 2 -a 0 -i 5 -k MAC 
- -t 91.683296582 -s 1 -d 3 -p cbr -e 586 -c 2 -a 0 -i 5 -k MAC
h -t 91.683296582 -s 1 -d 3 -p cbr -e 586 -c 2 -a 0 -i 5 -k MAC
r -t 91.687985211 -s 3 -d 3 -p cbr -e 532 -c 2 -a 0 -i 5 -k MAC
+ -t 91.687995211 -s 3 -d -1 -p ACK -e 40 -c 2 -a 0 -i 0 -k MAC 
- -t 91.687995211 -s 3 -d -1 -p ACK -e 40 -c 2 -a 0 -i 0 -k MAC
h -t 91.687995211 -s 3 -d -1 -p ACK -e 40 -c 2 -a 0 -i 0 -k MAC
r -t 91.688010211 -s 3 -d 3 -p cbr -e 532 -c 2 -a 0 -i 5 -k AGT
r -t 91.688315840 -s 1 -d -1 -p ACK -e 40 -c 2 -a 0 -i 0 -k MAC
+ -t 93.866008866 -s 2 -d -1 -p cbr -e 512 -c 2 -a 0 -i 6 -k AGT 
- -t 93.866008866 -s 2 -d -1 -p cbr -e 512 -c 2 -a 0 -i 6 -k AGT
h -t 93.866008866 -s 2 -d -1 -p cbr -e 512 -c 2 -a 0 -i 6 -k AGT
+ -t 93.866083866 -s 2 -d -1 -p RTS -e 46 -c 2 -a 0 -i 0 -k MAC 
- -t 93.866083866 -s 2 -d -1 -p RTS -e 46 -c 2 -a 0 -i 0 -k MAC
h -t 93.866083866 -s 2 -d -1 -p RTS -e 46 -c 2 -a 0 -i 0 -k MAC
r -t 93.866452610 -s 1 -d -1 -p RTS -e 46 -c 2 -a 0 -i 0 -k MAC
+ -t 93.866462610 -s 1 -d -1 -p CTS -e 40 -c 2 -a 0 -i 0 -k MAC 
- -t 93.866462610 -s 1 -d -1 -p CTS -e 40 -c 2 -a 0 -i 0 -k MAC
h -t 93.866462610 -s 1 -d -1 -p CTS -e 40 -c 2 -a 0 -i 0 -k MAC
r -t 93.866783355 -s 2 -d -1 -p CTS -e 40 -c 2 -a 0 -i 0 -k MAC
+ -t 93.866793355 -s 2 -d 1 -p cbr -e 586 -c 2 -a 0 -i 6 -k MAC 
- -t 93.866793355 -s 2 -d 1 -p cbr -e 586 -c 2 -a 0 -i 6 -k MAC
h -t 93.866793355 -s 2 -d 1 -p cbr -e 586 -c 2 -a 0 -i 6 -k MAC
r -t 93.871482099 -s 1 -d 1 -p cbr -e 532 -c 2 -a 0 -i 6 -k MAC
+ -t 93.871492099 -s 1 -d -1 -p ACK -e 40 -c 2 -a 0 -i 0 -k MAC 
- -t 93.871492099 -s 1 -d -1 -p ACK -e 40 -c 2 -a 0 -i 0 -k MAC
h -t 93.871492099 -s 1 -d -1 -p ACK -e 40 -c 2 -a 0 -i 0 -k MAC
r -t 93.871812843 -s 2 -d -1 -p ACK -e 40 -c 2 -a 0 -i 0 -k MAC
+ -t 93.872082099 -s 1 -d -1 -p RTS -e 46 -c 2 -a 0 -i 0 -k MAC 
- -t 93.872082099 -s 1 -d -1 -p RTS -e 46 -c 2 -a 0 -i 0 -k MAC
h -t 93.872082099 -s 1 -d -1 -p RTS -e 46 -c 2 -a 0 -i 0 -k MAC
r -t 93.872450728 -s 3 -d -1 -p RTS -e 46 -c 2 -a 0 -i 0 -k MAC
+ -t 93.872460728 -s 3 -d -1 -p CTS -e 40 -c 2 -a 0 -i 0 -k MAC 
- -t 93.872460728 -s 3 -d -1 -p CTS -e 40 -c 2 -a 0 -i 0 -k MAC
h -t 93.872460728 -s 3 -d -1 -p CTS -e 40 -c 2 -a 0 -i 0 -k MAC
r -t 93.872781357 -s 1 -d -1 -p CTS -e 40 -c 2 -a 0 -i 0 -k MAC
+ -t 93.872791357 -s 1 -d 3 -p cbr -e 586 -c 2 -a 0 -i 6 -k MAC 
- -t 93.872791357 -s 1 -d 3 -p cbr -e 586 -c 2 -a 0 -i 6 -k MAC
h -t 93.872791357 -s 1 -d 3 -p cbr -e 586 -c 2 -a 0 -i 6 -k MAC
r -t 93.877479986 -s 3 -d 3 -p cbr -e 532 -c 2 -a 0 -i 6 -k MAC
+ -t 93.877489986 -s 3 -d -1 -p ACK -e 40 -c 2 -a 0 -i 0 -k MAC 
- -t 93.877489986 -s 3 -d -1 -p ACK -e 40 -c 2 -a 0 -i 0 -k MAC
h -t 93.877489986 -s 3 -d -1 -p ACK -e 40 -c 2 -a 0 -i 0 -k MAC
r -t 93.877504986 -s 3 -d 3 -p cbr -e 532 -c 2 -a 0 -i 6 -k AGT
r -t 93.877810615 -s 1 -d -1 -p ACK -e 40 -c 2 -a 0 -i 0 -k MAC
+ -t 96.263355319 -s 2 -d -1 -p cbr -e 512 -c 2 -a 0 -i 7 -k AGT 
- -t 96.263355319 -s 2 -d -1 -p cbr -e 512 -c 2 -a 0 -i 7 -k AGT
h -t 96.263355319 -s 2 -d -1 -p cbr -e 512 -c 2 -a 0 -i 7 -k AGT
+ -t 96.263510319 -s 2 -d -1 -p RTS -e 46 -c 2 -a 0 -i 0 -k MAC 
- -t 96.263510319 -s 2 -d -1 -p RTS -e 46 -c 2 -a 0 -i 0 -k MAC
h -t 96.263510319 -s 2 -d -1 -p RTS -e 46 -c 2 -a 0 -i 0 -k MAC
r -t 96.263879063 -s 1 -d -1 -p RTS -e 46 -c 2 -a 0 -i 0 -k MAC
+ -t 96.263889063 -s 1 -d -1 -p CTS -e 40 -c 2 -a 0 -i 0 -k MAC 
- -t 96.263889063 -s 1 -d -1 -p CTS -e 40 -c 2 -a 0 -i 0 -k MAC
h -t 96.263889063 -s 1 -d -1 -p CTS -e 40 -c 2 -a 0 -i 0 -k MAC
r -t 96.264209808 -s 2 -d -1 -p CTS -e 40 -c 2 -a 0 -i 0 -k MAC
+ -t 96.264219808 -s 2 -d 1 -p cbr -e 586 -c 2 -a 0 -i 7 -k MAC 
- -t 96.264219808 -s 2 -d 1 -p cbr -e 586 -c 2 -a 0 -i 7 -k MAC
h -t 96.264219808 -s 2 -d 1 -p cbr -e 586 -c 2 -a 0 -i 7 -k MAC
r -t 96.268908552 -s 1 -d 1 -p cbr -e 532 -c 2 -a 0 -i 7 -k MAC
+ -t 96.268918552 -s 1 -d -1 -p ACK -e 40 -c 2 -a 0 -i 0 -k MAC 
- -t 96.268918552 -s 1 -d -1 -p ACK -e 40 -c 2 -a 0 -i 0 -k MAC
h -t 96.268918552 -s 1 -d -1 -p ACK -e 40 -c 2 -a 0 -i 0 -k MAC
r -t 96.269239296 -s 2 -d -1 -p ACK -e 40 -c 2 -a 0 -i 0 -k MAC
+ -t 96.269588552 -s 1 -d -1 -p RTS -e 46 -c 2 -a 0 -i 0 -k MAC 
- -t 96.269588552 -s 1 -d -1 -p RTS -e 46 -c 2 -a 0 -i 0 -k MAC
h -t 96.269588552 -s 1 -d -1 -p RTS -e 46 -c 2 -a 0 -i 0 -k MAC
r -t 96.269957181 -s 3 -d -1 -p RTS -e 46 -c 2 -a 0 -i 0 -k MAC
+ -t 96.269967181 -s 3 -d -1 -p CTS -e 40 -c 2 -a 0 -i 0 -k MAC 
- -t 96.269967181 -s 3 -d -1 -p CTS -e 40 -c 2 -a 0 -i 0 -k MAC
h -t 96.269967181 -s 3 -d -1 -p CTS -e 40 -c 2 -a 0 -i 0 -k MAC
r -t 96.270287810 -s 1 -d -1 -p CTS -e 40 -c 2 -a 0 -i 0 -k MAC
+ -t 96.270297810 -s 1 -d 3 -p cbr -e 586 -c 2 -a 0 -i 7 -k MAC 
- -t 96.270297810 -s 1 -d 3 -p cbr -e 586 -c 2 -a 0 -i 7 -k MAC
h -t 96.270297810 -s 1 -d 3 -p cbr -e 586 -c 2 -a 0 -i 7 -k MAC
r -t 96.274986439 -s 3 -d 3 -p cbr -e 532 -c 2 -a 0 -i 7 -k MAC
+ -t 96.274996439 -s 3 -d -1 -p ACK -e 40 -c 2 -a 0 -i 0 -k MAC 
- -t 96.274996439 -s 3 -d -1 -p ACK -e 40 -c 2 -a 0 -i 0 -k MAC
h -t 96.274996439 -s 3 -d -1 -p ACK -e 40 -c 2 -a 0 -i 0 -k MAC
r -t 96.275011439 -s 3 -d 3 -p cbr -e 532 -c 2 -a 0 -i 7 -k AGT
r -t 96.275317068 -s 1 -d -1 -p ACK -e 40 -c 2 -a 0 -i 0 -k MAC
+ -t 98.114729875 -s 2 -d -1 -p cbr -e 512 -c 2 -a 0 -i 8 -k AGT 
- -t 98.114729875 -s 2 -d -1 -p cbr -e 512 -c 2 -a 0 -i 8 -k AGT
h -t 98.114729875 -s 2 -d -1 -p cbr -e 512 -c 2 -a 0 -i 8 -k AGT
+ -t 98.115084875 -s 2 -d -1 -p RTS -e 46 -c 2 -a 0 -i 0 -k MAC 
- -t 98.115084875 -s 2 -d -1 -p RTS -e 46 -c 2 -a 0 -i 0 -k MAC
h -t 98.115084875 -s 2 -d -1 -p RTS -e 46 -c 2 -a 0 -i 0 -k MAC
r -t 98.115453620 -s 1 -d -1 -p RTS -e 46 -c 2 -a 0 -i 0 -k MAC
+ -t 98.115463620 -s 1 -d -1 -p CTS -e 40 -c 2 -a 0 -i 0 -k MAC 
- -t 98.115463620 -s 1 -d -1 -p CTS -e 40 -c 2 -a 0 -i 0 -k MAC
h -t 98.115463620 -s 1 -d -1 -p CTS -e 40 -c 2 -a 0 -i 0 -k MAC
r -t 98.115784364 -s 2 -d -1 -p CTS -e 40 -c 2 -a 0 -i 0 -k MAC
+ -t 98.115794364 -s 2 -d 1 -p cbr -e 586 -c 2 -a 0 -i 8 -k MAC 
- -t 98.115794364 -s 2 -d 1 -p cbr -e 586 -c 2 -a 0 -i 8 -k MAC
h -t 98.115794364 -s 2 -d 1 -p cbr -e 586 -c 2 -a 0 -i 8 -k MAC
r -t 98.120483108 -s 1 -d 1 -p cbr -e 532 -c 2 -a 0 -i 8 -k MAC
+ -t 98.120493108 -s 1 -d -1 -p ACK -e 40 -c 2 -a 0 -i 0 -k MAC 
- -t 98.120493108 -s 1 -d -1 -p ACK -e 40 -c 2 -a 0 -i 0 -k MAC
h -t 98.120493108 -s 1 -d -1 -p ACK -e 40 -c 2 -a 0 -i 0 -k MAC
r -t 98.120813853 -s 2 -d -1 -p ACK -e 40 -c 2 -a 0 -i 0 -k MAC
+ -t 98.120883108 -s 1 -d -1 -p RTS -e 46 -c 2 -a 0 -i 0 -k MAC 
- -t 98.120883108 -s 1 -d -1 -p RTS -e 46 -c 2 -a 0 -i 0 -k MAC
h -t 98.120883108 -s 1 -d -1 -p RTS -e 46 -c 2 -a 0 -i 0 -k MAC
r -t 98.121251738 -s 3 -d -1 -p RTS -e 46 -c 2 -a 0 -i 0 -k MAC
+ -t 98.121261738 -s 3 -d -1 -p CTS -e 40 -c 2 -a 0 -i 0 -k MAC 
- -t 98.121261738 -s 3 -d -1 -p CTS -e 40 -c 2 -a 0 -i 0 -k MAC
h -t 98.121261738 -s 3 -d -1 -p CTS -e 40 -c 2 -a 0 -i 0 -k MAC
r -t 98.121582367 -s 1 -d -1 -p CTS -e 40 -c 2 -a 0 -i 0 -k MAC
+ -t 98.121592367 -s 1 -d 3 -p cbr -e 586 -c 2 -a 0 -i 8 -k MAC 
- -t 98.121592367 -s 1 -d 3 -p cbr -e 586 -c 2 -a 0 -i 8 -k MAC
h -t 98.121592367 -s 1 -d 3 -p cbr -e 586 -c 2 -a 0 -i 8 -k MAC
r -t 98.126280996 -s 3 -d 3 -p cbr -e 532 -c 2 -a 0 -i 8 -k MAC
+ -t 98.126290996 -s 3 -d -1 -p ACK -e 40 -c 2 -a 0 -i 0 -k MAC 
- -t 98.126290996 -s 3 -d -1 -p ACK -e 40 -c 2 -a 0 -i 0 -k MAC
h -t 98.126290996 -s 3 -d -1 -p ACK -e 40 -c 2 -a 0 -i 0 -k MAC
r -t 98.126305996 -s 3 -d 3 -p cbr -e 532 -c 2 -a 0 -i 8 -k AGT
r -t 98.126611625 -s 1 -d -1 -p ACK -e 40 -c 2 -a 0 -i 0 -k MAC
+ -t 101.008362254 -s 2 -d -1 -p cbr -e 512 -c 2 -a 0 -i 9 -k AGT 
- -t 101.008362254 -s 2 -d -1 -p cbr -e 512 -c 2 -a 0 -i 9 -k AGT
h -t 101.008362254 -s 2 -d -1 -p cbr -e 512 -c 2 -a 0 -i 9 -k AGT
+ -t 101.008737254 -s 2 -d -1 -p RTS -e 46 -c 2 -a 0 -i 0 -k MAC 
- -t 101.008737254 -s 2 -d -1 -p RTS -e 46 -c 2 -a 0 -i 0 -k MAC
h -t 101.008737254 -s 2 -d -1 -p RTS -e 46 -c 2 -a 0 -i 0 -k MAC
r -t 101.009105998 -s 1 -d -1 -p RTS -e 46 -c 2 -a 0 -i 0 -k MAC
+ -t 101.009115998 -s 1 -d -1 -p CTS -e 40 -c 2 -a 0 -i 0 -k MAC 
- -t 101.009115998 -s 1 -d -1 -p CTS -e 40 -c 2 -a 0 -i 0 -k MAC
h -t 101.009115998 -s 1 -d -1 -p CTS -e 40 -c 2 -a 0 -i 0 -k MAC
r -t 101.009436743 -s 2 -d -1 -p CTS -e 40 -c 2 -a 0 -i 0 -k MAC
+ -t 101.009446743 -s 2 -d 1 -p cbr -e 586 -c 2 -a 0 -i 9 -k MAC 
- -t 101.009446743 -s 2 -d 1 -p cbr -e 586 -c 2 -a 0 -i 9 -k MAC
h -t 101.009446743 -s 2 -d 1 -p cbr -e 586 -c 2 -a 0 -i 9 -k MAC
r -t 101.014135487 -s 1 -d 1 -p cbr -e 532 -c 2 -a 0 -i 9 -k MAC
+ -t 101.014145487 -s 1 -d -1 -p ACK -e 40 -c 2 -a 0 -i 0 -k MAC 
- -t 101.014145487 -s 1 -d -1 -p ACK -e 40 -c 2 -a 0 -i 0 -k MAC
h -t 101.014145487 -s 1 -d -1 -p ACK -e 40 -c 2 -a 0 -i 0 -k MAC
r -t 101.014466231 -s 2 -d -1 -p ACK -e 40 -c 2 -a 0 -i 0 -k MAC
+ -t 101.014555487 -s 1 -d -1 -p RTS -e 46 -c 2 -a 0 -i 0 -k MAC 
- -t 101.014555487 -s 1 -d -1 -p RTS -e 46 -c 2 -a 0 -i 0 -k MAC
h -t 101.014555487 -s 1 -d -1 -p RTS -e 46 -c 2 -a 0 -i 0 -k MAC
r -t 101.014924116 -s 3 -d -1 -p RTS -e 46 -c 2 -a 0 -i 0 -k MAC
+ -t 101.014934116 -s 3 -d -1 -p CTS -e 40 -c 2 -a 0 -i 0 -k MAC 
- -t 101.014934116 -s 3 -d -1 -p CTS -e 40 -c 2 -a 0 -i 0 -k MAC
h -t 101.014934116 -s 3 -d -1 -p CTS -e 40 -c 2 -a 0 -i 0 -k MAC
r -t 101.015254745 -s 1 -d -1 -p CTS -e 40 -c 2 -a 0 -i 0 -k MAC
+ -t 101.015264745 -s 1 -d 3 -p cbr -e 586 -c 2 -a 0 -i 9 -k MAC 
- -t 101.015264745 -s 1 -d 3 -p cbr -e 586 -c 2 -a 0 -i 9 -k MAC
h -t 101.015264745 -s 1 -d 3 -p cbr -e 586 -c 2 -a 0 -i 9 -k MAC
r -t 101.019953374 -s 3 -d 3 -p cbr -e 532 -c 2 -a 0 -i 9 -k MAC
+ -t 101.019963374 -s 3 -d -1 -p ACK -e 40 -c 2 -a 0 -i 0 -k MAC 
- -t 101.019963374 -s 3 -d -1 -p ACK -e 40 -c 2 -a 0 -i 0 -k MAC
h -t 101.019963374 -s 3 -d -1 -p ACK -e 40 -c 2 -a 0 -i 0 -k MAC
r -t 101.019978374 -s 3 -d 3 -p cbr -e 532 -c 2 -a 0 -i 9 -k AGT