n -t * -s 0  -x 143.43750921878001 -y 94.217567273200004 -Z 0 -z 20  -v circle -c green
n -t * -s 1  -x 304.65324424678403 -y 167.07632596983501 -Z 0 -z 20  -v circle -c green
n -t * -s 2  -x 81.810723227699 -y 152.82536050561001 -Z 0 -z 20  -v circle -c green
n -t * -s 3  -x 325.834153339995 -y 354.615563074325 -Z 0 -z 20  -v circle -c green
n -t * -s 4  -x 23.768638624379001 -y 159.50938100993099 -Z 0 -z 20  -v circle -c green
V -t * -v 1.0a5 -a 0
W -t * -x 670 -y 670
A -t * -n 1 -p 0 -o 0xffffffff -c 31 -a 1
A -t * -h 1 -m 2147483647 -s 0
+ -t 82.557023746 -s 2 -d -1 -p cbr -e 512 -c 2 -a 0 -i 0 -k AGT 
- -t 82.557023746 -s 2 -d -1 -p cbr -e 512 -c 2 -a 0 -i 0 -k AGT
h -t 82.557023746 -s 2 -d -1 -p cbr -e 512 -c 2 -a 0 -i 0 -k AGT
+ -t 82.557138746 -s 2 -d -1 -p AODV -e 100 -c 2 -a 0 -i 0 -k MAC 
- -t 82.557138746 -s 2 -d -1 -p AODV -e 100 -c 2 -a 0 -i 0 -k MAC
h -t 82.557138746 -s 2 -d -1 -p AODV -e 100 -c 2 -a 0 -i 0 -k MAC
r -t 82.557938941 -s 4 -d -1 -p AODV -e 48 -c 2 -a 0 -i 0 -k MAC
r -t 82.557939030 -s 0 -d -1 -p AODV -e 48 -c 2 -a 0 -i 0 -k MAC
r -t 82.557939491 -s 1 -d -1 -p AODV -e 48 -c 2 -a 0 -i 0 -k MAC
+ -t 82.559080168 -s 4 -d -1 -p AODV -e 100 -c 2 -a 0 -i 0 -k MAC 
- -t 82.559080168 -s 4 -d -1 -p AODV -e 100 -c 2 -a 0 -i 0 -k MAC
h -t 82.559080168 -s 4 -d -1 -p AODV -e 100 -c 2 -a 0 -i 0 -k MAC
r -t 82.559880362 -s 2 -d -1 -p AODV -e 48 -c 2 -a 0 -i 0 -k MAC
r -t 82.559880622 -s 0 -d -1 -p AODV -e 48 -c 2 -a 0 -i 0 -k MAC
+ -t 82.562690764 -s 0 -d -1 -p AODV -e 100 -c 2 -a 0 -i 0 -k MAC 
- -t 82.562690764 -s 0 -d -1 -p AODV -e 100 -c 2 -a 0 -i 0 -k MAC
h -t 82.562690764 -s 0 -d -1 -p AODV -e 100 -c 2 -a 0 -i 0 -k MAC
r -t 82.563491047 -s 2 -d -1 -p AODV -e 48 -c 2 -a 0 -i 0 -k MAC
r -t 82.563491218 -s 4 -d -1 -p AODV -e 48 -c 2 -a 0 -i 0 -k MAC
r -t 82.563491353 -s 1 -d -1 -p AODV -e 48 -c 2 -a 0 -i 0 -k MAC
+ -t 82.566291045 -s 1 -d -1 -p AODV -e 100 -c 2 -a 0 -i 0 -k MAC 
- -t 82.566291045 -s 1 -d -1 -p AODV -e 100 -c 2 -a 0 -i 0 -k MAC
h -t 82.566291045 -s 1 -d -1 -p AODV -e 100 -c 2 -a 0 -i 0 -k MAC
r -t 82.567091635 -s 0 -d -1 -p AODV -e 48 -c 2 -a 0 -i 0 -k MAC
r -t 82.567091674 -s 3 -d -1 -p AODV -e 48 -c 2 -a 0 -i 0 -k MAC
r -t 82.567091789 -s 2 -d -1 -p AODV -e 48 -c 2 -a 0 -i 0 -k MAC
+ -t 82.567211674 -s 3 -d -1 -p ARP -e 80 -c 2 -a 0 -i 0 -k MAC 
- -t 82.567211674 -s 3 -d -1 -p ARP -e 80 -c 2 -a 0 -i 0 -k MAC
h -t 82.567211674 -s 3 -d -1 -p ARP -e 80 -c 2 -a 0 -i 0 -k MAC
r -t 82.567852303 -s 1 -d -1 -p ARP -e 28 -c 2 -a 0 -i 0 -k MAC
+ -t 82.568082303 -s 1 -d -1 -p RTS -e 44 -c 2 -a 0 -i 0 -k MAC 
- -t 82.568082303 -s 1 -d -1 -p RTS -e 44 -c 2 -a 0 -i 0 -k MAC
h -t 82.568082303 -s 1 -d -1 -p RTS -e 44 -c 2 -a 0 -i 0 -k MAC
r -t 82.568434932 -s 3 -d -1 -p RTS -e 44 -c 2 -a 0 -i 0 -k MAC
+ -t 82.568444932 -s 3 -d -1 -p CTS -e 38 -c 2 -a 0 -i 0 -k MAC 
- -t 82.568444932 -s 3 -d -1 -p CTS -e 38 -c 2 -a 0 -i 0 -k MAC
h -t 82.568444932 -s 3 -d -1 -p CTS -e 38 -c 2 -a 0 -i 0 -k MAC
r -t 82.568749562 -s 1 -d -1 -p CTS -e 38 -c 2 -a 0 -i 0 -k MAC
+ -t 82.568759562 -s 1 -d -1 -p ARP -e 80 -c 2 -a 0 -i 0 -k MAC 
- -t 82.568759562 -s 1 -d -1 -p ARP -e 80 -c 2 -a 0 -i 0 -k MAC
h -t 82.568759562 -s 1 -d -1 -p ARP -e 80 -c 2 -a 0 -i 0 -k MAC
r -t 82.569400191 -s 3 -d -1 -p ARP -e 28 -c 2 -a 0 -i 0 -k MAC
+ -t 82.569410191 -s 3 -d -1 -p ACK -e 38 -c 2 -a 0 -i 0 -k MAC 
- -t 82.569410191 -s 3 -d -1 -p ACK -e 38 -c 2 -a 0 -i 0 -k MAC
h -t 82.569410191 -s 3 -d -1 -p ACK -e 38 -c 2 -a 0 -i 0 -k MAC
r -t 82.569714820 -s 1 -d -1 -p ACK -e 38 -c 2 -a 0 -i 0 -k MAC
+ -t 82.570124191 -s 3 -d -1 -p RTS -e 44 -c 2 -a 0 -i 0 -k MAC 
- -t 82.570124191 -s 3 -d -1 -p RTS -e 44 -c 2 -a 0 -i 0 -k MAC
h -t 82.570124191 -s 3 -d -1 -p RTS -e 44 -c 2 -a 0 -i 0 -k MAC
r -t 82.570476820 -s 1 -d -1 -p RTS -e 44 -c 2 -a 0 -i 0 -k MAC
+ -t 82.570486820 -s 1 -d -1 -p CTS -e 38 -c 2 -a 0 -i 0 -k MAC 
- -t 82.570486820 -s 1 -d -1 -p CTS -e 38 -c 2 -a 0 -i 0 -k MAC
h -t 82.570486820 -s 1 -d -1 -p CTS -e 38 -c 2 -a 0 -i 0 -k MAC
r -t 82.570791449 -s 3 -d -1 -p CTS -e 38 -c 2 -a 0 -i 0 -k MAC
+ -t 82.570801449 -s 3 -d 1 -p AODV -e 96 -c 2 -a 0 -i 0 -k MAC 
- -t 82.570801449 -s 3 -d 1 -p AODV -e 96 -c 2 -a 0 -i 0 -k MAC
h -t 82.570801449 -s 3 -d 1 -p AODV -e 96 -c 2 -a 0 -i 0 -k MAC
r -t 82.571570078 -s 1 -d 1 -p AODV -e 44 -c 2 -a 0 -i 0 -k MAC
+ -t 82.571580078 -s 1 -d -1 -p ACK -e 38 -c 2 -a 0 -i 0 -k MAC 
- -t 82.571580078 -s 1 -d -1 -p ACK -e 38 -c 2 -a 0 -i 0 -k MAC
h -t 82.571580078 -s 1 -d -1 -p ACK -e 38 -c 2 -a 0 -i 0 -k MAC
r -t 82.571884707 -s 3 -d -1 -p ACK -e 38 -c 2 -a 0 -i 0 -k MAC
+ -t 82.572294078 -s 1 -d -1 -p ARP -e 80 -c 2 -a 0 -i 0 -k MAC 
- -t 82.572294078 -s 1 -d -1 -p ARP -e 80 -c 2 -a 0 -i 0 -k MAC
h -t 82.572294078 -s 1 -d -1 -p ARP -e 80 -c 2 -a 0 -i 0 -k MAC
r -t 82.572934668 -s 0 -d -1 -p ARP -e 28 -c 2 -a 0 -i 0 -k MAC
r -t 82.572934707 -s 3 -d -1 -p ARP -e 28 -c 2 -a 0 -i 0 -k MAC
r -t 82.572934822 -s 2 -d -1 -p ARP -e 28 -c 2 -a 0 -i 0 -k MAC
+ -t 82.573469822 -s 2 -d -1 -p RTS -e 44 -c 2 -a 0 -i 0 -k MAC 
- -t 82.573469822 -s 2 -d -1 -p RTS -e 44 -c 2 -a 0 -i 0 -k MAC
h -t 82.573469822 -s 2 -d -1 -p RTS -e 44 -c 2 -a 0 -i 0 -k MAC
r -t 82.573822567 -s 1 -d -1 -p RTS -e 44 -c 2 -a 0 -i 0 -k MAC
+ -t 82.573832567 -s 1 -d -1 -p CTS -e 38 -c 2 -a 0 -i 0 -k MAC 
- -t 82.573832567 -s 1 -d -1 -p CTS -e 38 -c 2 -a 0 -i 0 -k MAC
h -t 82.573832567 -s 1 -d -1 -p CTS -e 38 -c 2 -a 0 -i 0 -k MAC
r -t 82.574137311 -s 2 -d -1 -p CTS -e 38 -c 2 -a 0 -i 0 -k MAC
+ -t 82.574147311 -s 2 -d -1 -p ARP -e 80 -c 2 -a 0 -i 0 -k MAC 
- -t 82.574147311 -s 2 -d -1 -p ARP -e 80 -c 2 -a 0 -i 0 -k MAC
h -t 82.574147311 -s 2 -d -1 -p ARP -e 80 -c 2 -a 0 -i 0 -k MAC
r -t 82.574788055 -s 1 -d -1 -p ARP -e 28 -c 2 -a 0 -i 0 -k MAC
+ -t 82.574798055 -s 1 -d -1 -p ACK -e 38 -c 2 -a 0 -i 0 -k MAC 
- -t 82.574798055 -s 1 -d -1 -p ACK -e 38 -c 2 -a 0 -i 0 -k MAC
h -t 82.574798055 -s 1 -d -1 -p ACK -e 38 -c 2 -a 0 -i 0 -k MAC
r -t 82.575102800 -s 2 -d -1 -p ACK -e 38 -c 2 -a 0 -i 0 -k MAC
+ -t 82.575492055 -s 1 -d -1 -p RTS -e 44 -c 2 -a 0 -i 0 -k MAC 
- -t 82.575492055 -s 1 -d -1 -p RTS -e 44 -c 2 -a 0 -i 0 -k MAC
h -t 82.575492055 -s 1 -d -1 -p RTS -e 44 -c 2 -a 0 -i 0 -k MAC
r -t 82.575844800 -s 2 -d -1 -p RTS -e 44 -c 2 -a 0 -i 0 -k MAC
+ -t 82.575854800 -s 2 -d -1 -p CTS -e 38 -c 2 -a 0 -i 0 -k MAC 
- -t 82.575854800 -s 2 -d -1 -p CTS -e 38 -c 2 -a 0 -i 0 -k MAC
h -t 82.575854800 -s 2 -d -1 -p CTS -e 38 -c 2 -a 0 -i 0 -k MAC
r -t 82.576159544 -s 1 -d -1 -p CTS -e 38 -c 2 -a 0 -i 0 -k MAC
+ -t 82.576169544 -s 1 -d 2 -p AODV -e 96 -c 2 -a 0 -i 0 -k MAC 
- -t 82.576169544 -s 1 -d 2 -p AODV -e 96 -c 2 -a 0 -i 0 -k MAC
h -t 82.576169544 -s 1 -d 2 -p AODV -e 96 -c 2 -a 0 -i 0 -k MAC
r -t 82.576938288 -s 2 -d 2 -p AODV -e 44 -c 2 -a 0 -i 0 -k MAC
+ -t 82.576948288 -s 2 -d -1 -p ACK -e 38 -c 2 -a 0 -i 0 -k MAC 
- -t 82.576948288 -s 2 -d -1 -p ACK -e 38 -c 2 -a 0 -i 0 -k MAC
h -t 82.576948288 -s 2 -d -1 -p ACK -e 38 -c 2 -a 0 -i 0 -k MAC
r -t 82.577253033 -s 1 -d -1 -p ACK -e 38 -c 2 -a 0 -i 0 -k MAC
+ -t 82.577502288 -s 2 -d -1 -p RTS -e 44 -c 2 -a 0 -i 0 -k MAC 
- -t 82.577502288 -s 2 -d -1 -p RTS -e 44 -c 2 -a 0 -i 0 -k MAC
h -t 82.577502288 -s 2 -d -1 -p RTS -e 44 -c 2 -a 0 -i 0 -k MAC
r -t 82.577855033 -s 1 -d -1 -p RTS -e 44 -c 2 -a 0 -i 0 -k MAC
+ -t 82.577865033 -s 1 -d -1 -p CTS -e 38 -c 2 -a 0 -i 0 -k MAC 
- -t 82.577865033 -s 1 -d -1 -p CTS -e 38 -c 2 -a 0 -i 0 -k MAC
h -t 82.577865033 -s 1 -d -1 -p CTS -e 38 -c 2 -a 0 -i 0 -k MAC
r -t 82.578169777 -s 2 -d -1 -p CTS -e 38 -c 2 -a 0 -i 0 -k MAC
+ -t 82.578179777 -s 2 -d 1 -p cbr -e 584 -c 2 -a 0 -i 0 -k MAC 
- -t 82.578179777 -s 2 -d 1 -p cbr -e 584 -c 2 -a 0 -i 0 -k MAC
h -t 82.578179777 -s 2 -d 1 -p cbr -e 584 -c 2 -a 0 -i 0 -k MAC
r -t 82.582852521 -s 1 -d 1 -p cbr -e 532 -c 2 -a 0 -i 0 -k MAC
+ -t 82.582862521 -s 1 -d -1 -p ACK -e 38 -c 2 -a 0 -i 0 -k MAC 
- -t 82.582862521 -s 1 -d -1 -p ACK -e 38 -c 2 -a 0 -i 0 -k MAC
h -t 82.582862521 -s 1 -d -1 -p ACK -e 38 -c 2 -a 0 -i 0 -k MAC
r -t 82.583167266 -s 2 -d -1 -p ACK -e 38 -c 2 -a 0 -i 0 -k MAC
+ -t 82.583256521 -s 1 -d -1 -p RTS -e 44 -c 2 -a 0 -i 0 -k MAC 
- -t 82.583256521 -s 1 -d -1 -p RTS -e 44 -c 2 -a 0 -i 0 -k MAC
h -t 82.583256521 -s 1 -d -1 -p RTS -e 44 -c 2 -a 0 -i 0 -k MAC
r -t 82.583609150 -s 3 -d -1 -p RTS -e 44 -c 2 -a 0 -i 0 -k MAC
+ -t 82.583619150 -s 3 -d -1 -p CTS -e 38 -c 2 -a 0 -i 0 -k MAC 
- -t 82.583619150 -s 3 -d -1 -p CTS -e 38 -c 2 -a 0 -i 0 -k MAC
h -t 82.583619150 -s 3 -d -1 -p CTS -e 38 -c 2 -a 0 -i 0 -k MAC
r -t 82.583923779 -s 1 -d -1 -p CTS -e 38 -c 2 -a 0 -i 0 -k MAC
+ -t 82.583933779 -s 1 -d 3 -p cbr -e 584 -c 2 -a 0 -i 0 -k MAC 
- -t 82.583933779 -s 1 -d 3 -p cbr -e 584 -c 2 -a 0 -i 0 -k MAC
h -t 82.583933779 -s 1 -d 3 -p cbr -e 584 -c 2 -a 0 -i 0 -k MAC
r -t 82.588606408 -s 3 -d 3 -p cbr -e 532 -c 2 -a 0 -i 0 -k MAC
+ -t 82.588616408 -s 3 -d -1 -p ACK -e 38 -c 2 -a 0 -i 0 -k MAC 
- -t 82.588616408 -s 3 -d -1 -p ACK -e 38 -c 2 -a 0 -i 0 -k MAC
h -t 82.588616408 -s 3 -d -1 -p ACK -e 38 -c 2 -a 0 -i 0 -k MAC
r -t 82.588631408 -s 3 -d 3 -p cbr -e 532 -c 2 -a 0 -i 0 -k AGT
r -t 82.588921038 -s 1 -d -1 -p ACK -e 38 -c 2 -a 0 -i 0 -k MAC
+ -t 83.557702901 -s 2 -d -1 -p cbr -e 512 -c 2 -a 0 -i 1 -k AGT 
- -t 83.557702901 -s 2 -d -1 -p cbr -e 512 -c 2 -a 0 -i 1 -k AGT
h -t 83.557702901 -s 2 -d -1 -p cbr -e 512 -c 2 -a 0 -i 1 -k AGT
+ -t 83.557957901 -s 2 -d -1 -p RTS -e 44 -c 2 -a 0 -i 0 -k MAC 
- -t 83.557957901 -s 2 -d -1 -p RTS -e 44 -c 2 -a 0 -i 0 -k MAC
h -t 83.557957901 -s 2 -d -1 -p RTS -e 44 -c 2 -a 0 -i 0 -k MAC
r -t 83.558310645 -s 1 -d -1 -p RTS -e 44 -c 2 -a 0 -i 0 -k MAC
+ -t 83.558320645 -s 1 -d -1 -p CTS -e 38 -c 2 -a 0 -i 0 -k MAC 
- -t 83.558320645 -s 1 -d -1 -p CTS -e 38 -c 2 -a 0 -i 0 -k MAC
h -t 83.558320645 -s 1 -d -1 -p CTS -e 38 -c 2 -a 0 -i 0 -k MAC
r -t 83.558625389 -s 2 -d -1 -p CTS -e 38 -c 2 -a 0 -i 0 -k MAC
+ -t 83.558635389 -s 2 -d 1 -p cbr -e 584 -c 2 -a 0 -i 1 -k MAC 
- -t 83.558635389 -s 2 -d 1 -p cbr -e 584 -c 2 -a 0 -i 1 -k MAC
h -t 83.558635389 -s 2 -d 1 -p cbr -e 584 -c 2 -a 0 -i 1 -k MAC
r -t 83.563308134 -s 1 -d 1 -p cbr -e 532 -c 2 -a 0 -i 1 -k MAC
+ -t 83.563318134 -s 1 -d -1 -p ACK -e 38 -c 2 -a 0 -i 0 -k MAC 
- -t 83.563318134 -s 1 -d -1 -p ACK -e 38 -c 2 -a 0 -i 0 -k MAC
h -t 83.563318134 -s 1 -d -1 -p ACK -e 38 -c 2 -a 0 -i 0 -k MAC
r -t 83.563622878 -s 2 -d -1 -p ACK -e 38 -c 2 -a 0 -i 0 -k MAC
+ -t 83.564252134 -s 1 -d -1 -p RTS -e 44 -c 2 -a 0 -i 0 -k MAC 
- -t 83.564252134 -s 1 -d -1 -p RTS -e 44 -c 2 -a 0 -i 0 -k MAC
h -t 83.564252134 -s 1 -d -1 -p RTS -e 44 -c 2 -a 0 -i 0 -k MAC
r -t 83.564604763 -s 3 -d -1 -p RTS -e 44 -c 2 -a 0 -i 0 -k MAC
+ -t 83.564614763 -s 3 -d -1 -p CTS -e 38 -c 2 -a 0 -i 0 -k MAC 
- -t 83.564614763 -s 3 -d -1 -p CTS -e 38 -c 2 -a 0 -i 0 -k MAC
h -t 83.564614763 -s 3 -d -1 -p CTS -e 38 -c 2 -a 0 -i 0 -k MAC
r -t 83.564919392 -s 1 -d -1 -p CTS -e 38 -c 2 -a 0 -i 0 -k MAC
+ -t 83.564929392 -s 1 -d 3 -p cbr -e 584 -c 2 -a 0 -i 1 -k MAC 
- -t 83.564929392 -s 1 -d 3 -p cbr -e 584 -c 2 -a 0 -i 1 -k MAC
h -t 83.564929392 -s 1 -d 3 -p cbr -e 584 -c 2 -a 0 -i 1 -k MAC
r -t 83.569602021 -s 3 -d 3 -p cbr -e 532 -c 2 -a 0 -i 1 -k MAC
+ -t 83.569612021 -s 3 -d -1 -p ACK -e 38 -c 2 -a 0 -i 0 -k MAC 
- -t 83.569612021 -s 3 -d -1 -p ACK -e 38 -c 2 -a 0 -i 0 -k MAC
h -t 83.569612021 -s 3 -d -1 -p ACK -e 38 -c 2 -a 0 -i 0 -k MAC
r -t 83.569627021 -s 3 -d 3 -p cbr -e 532 -c 2 -a 0 -i 1 -k AGT
r -t 83.569916650 -s 1 -d -1 -p ACK -e 38 -c 2 -a 0 -i 0 -k MAC
+ -t 85.489934773 -s 2 -d -1 -p cbr -e 512 -c 2 -a 0 -i 2 -k AGT 
- -t 85.489934773 -s 2 -d -1 -p cbr -e 512 -c 2 -a 0 -i 2 -k AGT
h -t 85.489934773 -s 2 -d -1 -p cbr -e 512 -c 2 -a 0 -i 2 -k AGT
+ -t 85.490049773 -s 2 -d -1 -p RTS -e 44 -c 2 -a 0 -i 0 -k MAC 
- -t 85.490049773 -s 2 -d -1 -p RTS -e 44 -c 2 -a 0 -i 0 -k MAC
h -t 85.490049773 -s 2 -d -1 -p RTS -e 44 -c 2 -a 0 -i 0 -k MAC
r -t 85.490402518 -s 1 -d -1 -p RTS -e 44 -c 2 -a 0 -i 0 -k MAC
+ -t 85.490412518 -s 1 -d -1 -p CTS -e 38 -c 2 -a 0 -i 0 -k MAC 
- -t 85.490412518 -s 1 -d -1 -p CTS -e 38 -c 2 -a 0 -i 0 -k MAC
h -t 85.490412518 -s 1 -d -1 -p CTS -e 38 -c 2 -a 0 -i 0 -k MAC
r -t 85.490717262 -s 2 -d -1 -p CTS -e 38 -c 2 -a 0 -i 0 -k MAC
+ -t 85.490727262 -s 2 -d 1 -p cbr -e 584 -c 2 -a 0 -i 2 -k MAC 
- -t 85.490727262 -s 2 -d 1 -p cbr -e 584 -c 2 -a 0 -i 2 -k MAC
h -t 85.490727262 -s 2 -d 1 -p cbr -e 584 -c 2 -a 0 -i 2 -k MAC
r -t 85.495400006 -s 1 -d 1 -p cbr -e 532 -c 2 -a 0 -i 2 -k MAC
+ -t 85.495410006 -s 1 -d -1 -p ACK -e 38 -c 2 -a 0 -i 0 -k MAC 
- -t 85.495410006 -s 1 -d -1 -p ACK -e 38 -c 2 -a 0 -i 0 -k MAC
h -t 85.495410006 -s 1 -d -1 -p ACK -e 38 -c 2 -a 0 -i 0 -k MAC
r -t 85.495714751 -s 2 -d -1 -p ACK -e 38 -c 2 -a 0 -i 0 -k MAC
+ -t 85.496064006 -s 1 -d -1 -p RTS -e 44 -c 2 -a 0 -i 0 -k MAC 
- -t 85.496064006 -s 1 -d -1 -p RTS -e 44 -c 2 -a 0 -i 0 -k MAC
h -t 85.496064006 -s 1 -d -1 -p RTS -e 44 -c 2 -a 0 -i 0 -k MAC
r -t 85.496416636 -s 3 -d -1 -p RTS -e 44 -c 2 -a 0 -i 0 -k MAC
+ -t 85.496426636 -s 3 -d -1 -p CTS -e 38 -c 2 -a 0 -i 0 -k MAC 
- -t 85.496426636 -s 3 -d -1 -p CTS -e 38 -c 2 -a 0 -i 0 -k MAC
h -t 85.496426636 -s 3 -d -1 -p CTS -e 38 -c 2 -a 0 -i 0 -k MAC
r -t 85.496731265 -s 1 -d -1 -p CTS -e 38 -c 2 -a 0 -i 0 -k MAC
+ -t 85.496741265 -s 1 -d 3 -p cbr -e 584 -c 2 -a 0 -i 2 -k MAC 
- -t 85.496741265 -s 1 -d 3 -p cbr -e 584 -c 2 -a 0 -i 2 -k MAC
h -t 85.496741265 -s 1 -d 3 -p cbr -e 584 -c 2 -a 0 -i 2 -k MAC
r -t 85.501413894 -s 3 -d 3 -p cbr -e 532 -c 2 -a 0 -i 2 -k MAC
+ -t 85.501423894 -s 3 -d -1 -p ACK -e 38 -c 2 -a 0 -i 0 -k MAC 
- -t 85.501423894 -s 3 -d -1 -p ACK -e 38 -c 2 -a 0 -i 0 -k MAC
h -t 85.501423894 -s 3 -d -1 -p ACK -e 38 -c 2 -a 0 -i 0 -k MAC
r -t 85.501438894 -s 3 -d 3 -p cbr -e 532 -c 2 -a 0 -i 2 -k AGT
r -t 85.501728523 -s 1 -d -1 -p ACK -e 38 -c 2 -a 0 -i 0 -k MAC
+ -t 86.972386029 -s 2 -d -1 -p cbr -e 512 -c 2 -a 0 -i 3 -k AGT 
- -t 86.972386029 -s 2 -d -1 -p cbr -e 512 -c 2 -a 0 -i 3 -k AGT
h -t 86.972386029 -s 2 -d -1 -p cbr -e 512 -c 2 -a 0 -i 3 -k AGT
+ -t 86.972741029 -s 2 -d -1 -p RTS -e 44 -c 2 -a 0 -i 0 -k MAC 
- -t 86.972741029 -s 2 -d -1 -p RTS -e 44 -c 2 -a 0 -i 0 -k MAC
h -t 86.972741029 -s 2 -d -1 -p RTS -e 44 -c 2 -a 0 -i 0 -k MAC
r -t 86.973093774 -s 1 -d -1 -p RTS -e 44 -c 2 -a 0 -i 0 -k MAC
+ -t 86.973103774 -s 1 -d -1 -p CTS -e 38 -c 2 -a 0 -i 0 -k MAC 
- -t 86.973103774 -s 1 -d -1 -p CTS -e 38 -c 2 -a 0 -i 0 -k MAC
h -t 86.973103774 -s 1 -d -1 -p CTS -e 38 -c 2 -a 0 -i 0 -k MAC
r -t 86.973408518 -s 2 -d -1 -p CTS -e 38 -c 2 -a 0 -i 0 -k MAC
+ -t 86.973418518 -s 2 -d 1 -p cbr -e 584 -c 2 -a 0 -i 3 -k MAC 
- -t 86.973418518 -s 2 -d 1 -p cbr -e 584 -c 2 -a 0 -i 3 -k MAC
h -t 86.973418518 -s 2 -d 1 -p cbr -e 584 -c 2 -a 0 -i 3 -k MAC
r -t 86.978091262 -s 1 -d 1 -p cbr -e 532 -c 2 -a 0 -i 3 -k MAC
+ -t 86.978101262 -s 1 -d -1 -p ACK -e 38 -c 2 -a 0 -i 0 -k MAC 
- -t 86.978101262 -s 1 -d -1 -p ACK -e 38 -c 2 -a 0 -i 0 -k MAC
h -t 86.978101262 -s 1 -d -1 -p ACK -e 38 -c 2 -a 0 -i 0 -k MAC
r -t 86.978406007 -s 2 -d -1 -p ACK -e 38 -c 2 -a 0 -i 0 -k MAC
+ -t 86.978655262 -s 1 -d -1 -p RTS -e 44 -c 2 -a 0 -i 0 -k MAC 
- -t 86.978655262 -s 1 -d -1 -p RTS -e 44 -c 2 -a 0 -i 0 -k MAC
h -t 86.978655262 -s 1 -d -1 -p RTS -e 44 -c 2 -a 0 -i 0 -k MAC
r -t 86.979007892 -s 3 -d -1 -p RTS -e 44 -c 2 -a 0 -i 0 -k MAC
+ -t 86.979017892 -s 3 -d -1 -p CTS -e 38 -c 2 -a 0 -i 0 -k MAC 
- -t 86.979017892 -s 3 -d -1 -p CTS -e 38 -c 2 -a 0 -i 0 -k MAC
h -t 86.979017892 -s 3 -d -1 -p CTS -e 38 -c 2 -a 0 -i 0 -k MAC
r -t 86.979322521 -s 1 -d -1 -p CTS -e 38 -c 2 -a 0 -i 0 -k MAC
+ -t 86.979332521 -s 1 -d 3 -p cbr -e 584 -c 2 -a 0 -i 3 -k MAC 
- -t 86.979332521 -s 1 -d 3 -p cbr -e 584 -c 2 -a 0 -i 3 -k MAC
h -t 86.979332521 -s 1 -d 3 -p cbr -e 584 -c 2 -a 0 -i 3 -k MAC
r -t 86.984005150 -s 3 -d 3 -p cbr -e 532 -c 2 -a 0 -i 3 -k MAC
+ -t 86.984015150 -s 3 -d -1 -p ACK -e 38 -c 2 -a 0 -i 0 -k MAC 
- -t 86.984015150 -s 3 -d -1 -p ACK -e 38 -c 2 -a 0 -i 0 -k MAC
h -t 86.984015150 -s 3 -d -1 -p ACK -e 38 -c 2 -a 0 -i 0 -k MAC
r -t 86.984030150 -s 3 -d 3 -p cbr -e 532 -c 2 -a 0 -i 3 -k AGT
r -t 86.984319779 -s 1 -d -1 -p ACK -e 38 -c 2 -a 0 -i 0 -k MAC
+ -t 88.783424184 -s 2 -d -1 -p cbr -e 512 -c 2 -a 0 -i 4 -k AGT 
- -t 88.783424184 -s 2 -d -1 -p cbr -e 512 -c 2 -a 0 -i 4 -k AGT
h -t 88.783424184 -s 2 -d -1 -p cbr -e 512 -c 2 -a 0 -i 4 -k AGT
+ -t 88.783699184 -s 2 -d -1 -p RTS -e 44 -c 2 -a 0 -i 0 -k MAC 
- -t 88.783699184 -s 2 -d -1 -p RTS -e 44 -c 2 -a 0 -i 0 -k MAC
h -t 88.783699184 -s 2 -d -1 -p RTS -e 44 -c 2 -a 0 -i 0 -k MAC
r -t 88.784051928 -s 1 -d -1 -p RTS -e 44 -c 2 -a 0 -i 0 -k MAC
+ -t 88.784061928 -s 1 -d -1 -p CTS -e 38 -c 2 -a 0 -i 0 -k MAC 
- -t 88.784061928 -s 1 -d -1 -p CTS -e 38 -c 2 -a 0 -i 0 -k MAC
h -t 88.784061928 -s 1 -d -1 -p CTS -e 38 -c 2 -a 0 -i 0 -k MAC
r -t 88.784366672 -s 2 -d -1 -p CTS -e 38 -c 2 -a 0 -i 0 -k MAC
+ -t 88.784376672 -s 2 -d 1 -p cbr -e 584 -c 2 -a 0 -i 4 -k MAC 
- -t 88.784376672 -s 2 -d 1 -p cbr -e 584 -c 2 -a 0 -i 4 -k MAC
h -t 88.784376672 -s 2 -d 1 -p cbr -e 584 -c 2 -a 0 -i 4 -k MAC
r -t 88.789049417 -s 1 -d 1 -p cbr -e 532 -c 2 -a 0 -i 4 -k MAC
+ -t 88.789059417 -s 1 -d -1 -p ACK -e 38 -c 2 -a 0 -i 0 -k MAC 
- -t 88.789059417 -s 1 -d -1 -p ACK -e 38 -c 2 -a 0 -i 0 -k MAC
h -t 88.789059417 -s 1 -d -1 -p ACK -e 38 -c 2 -a 0 -i 0 -k MAC
r -t 88.789364161 -s 2 -d -1 -p ACK -e 38 -c 2 -a 0 -i 0 -k MAC
+ -t 88.789993417 -s 1 -d -1 -p RTS -e 44 -c 2 -a 0 -i 0 -k MAC 
- -t 88.789993417 -s 1 -d -1 -p RTS -e 44 -c 2 -a 0 -i 0 -k MAC
h -t 88.789993417 -s 1 -d -1 -p RTS -e 44 -c 2 -a 0 -i 0 -k MAC
r -t 88.790346046 -s 3 -d -1 -p RTS -e 44 -c 2 -a 0 -i 0 -k MAC
+ -t 88.790356046 -s 3 -d -1 -p CTS -e 38 -c 2 -a 0 -i 0 -k MAC 
- -t 88.790356046 -s 3 -d -1 -p CTS -e 38 -c 2 -a 0 -i 0 -k MAC
h -t 88.790356046 -s 3 -d -1 -p CTS -e 38 -c 2 -a 0 -i 0 -k MAC
r -t 88.790660675 -s 1 -d -1 -p CTS -e 38 -c 2 -a 0 -i 0 -k MAC
+ -t 88.790670675 -s 1 -d 3 -p cbr -e 584 -c 2 -a 0 -i 4 -k MAC 
- -t 88.790670675 -s 1 -d 3 -p cbr -e 584 -c 2 -a 0 -i 4 -k MAC
h -t 88.790670675 -s 1 -d 3 -p cbr -e 584 -c 2 -a 0 -i 4 -k MAC
r -t 88.795343304 -s 3 -d 3 -p cbr -e 532 -c 2 -a 0 -i 4 -k MAC
+ -t 88.795353304 -s 3 -d -1 -p ACK -e 38 -c 2 -a 0 -i 0 -k MAC 
- -t 88.795353304 -s 3 -d -1 -p ACK -e 38 -c 2 -a 0 -i 0 -k MAC
h -t 88.795353304 -s 3 -d -1 -p ACK -e 38 -c 2 -a 0 -i 0 -k MAC
r -t 88.795368304 -s 3 -d 3 -p cbr -e 532 -c 2 -a 0 -i 4 -k AGT
r -t 88.795657933 -s 1 -d -1 -p ACK -e 38 -c 2 -a 0 -i 0 -k MAC
+ -t 91.675954090 -s 2 -d -1 -p cbr -e 512 -c 2 -a 0 -i 5 -k AGT 
- -t 91.675954090 -s 2 -d -1 -p cbr -e 512 -c 2 -a 0 -i 5 -k AGT
h -t 91.675954090 -s 2 -d -1 -p cbr -e 512 -c 2 -a 0 -i 5 -k AGT
+ -t 91.676529090 -s 2 -d -1 -p RTS -e 44 -c 2 -a 0 -i 0 -k MAC 
- -t 91.676529090 -s 2 -d -1 -p RTS -e 44 -c 2 -a 0 -i 0 -k MAC
h -t 91.676529090 -s 2 -d -1 -p RTS -e 44 -c 2 -a 0 -i 0 -k MAC
r -t 91.676881835 -s 1 -d -1 -p RTS -e 44 -c 2 -a 0 -i 0 -k MAC
+ -t 91.676891835 -s 1 -d -1 -p CTS -e 38 -c 2 -a 0 -i 0 -k MAC 
- -t 91.676891835 -s 1 -d -1 -p CTS -e 38 -c 2 -a 0 -i 0 -k MAC
h -t 91.676891835 -s 1 -d -1 -p CTS -e 38 -c 2 -a 0 -i 0 -k MAC
r -t 91.677196579 -s 2 -d -1 -p CTS -e 38 -c 2 -a 0 -i 0 -k MAC
+ -t 91.677206579 -s 2 -d 1 -p cbr -e 584 -c 2 -a 0 -i 5 -k MAC 
- -t 91.677206579 -s 2 -d 1 -p cbr -e 584 -c 2 -a 0 -i 5 -k MAC
h -t 91.677206579 -s 2 -d 1 -p cbr -e 584 -c 2 -a 0 -i 5 -k MAC
r -t 91.681879323 -s 1 -d 1 -p cbr -e 532 -c 2 -a 0 -i 5 -k MAC
+ -t 91.681889323 -s 1 -d -1 -p ACK -e 38 -c 2 -a 0 -i 0 -k MAC 
- -t 91.681889323 -s 1 -d -1 -p ACK -e 38 -c 2 -a 0 -i 0 -k MAC
h -t 91.681889323 -s 1 -d -1 -p ACK -e 38 -c 2 -a 0 -i 0 -k MAC
r -t 91.682194068 -s 2 -d -1 -p ACK -e 38 -c 2 -a 0 -i 0 -k MAC
+ -t 91.682523323 -s 1 -d -1 -p RTS -e 44 -c 2 -a 0 -i 0 -k MAC 
- -t 91.682523323 -s 1 -d -1 -p RTS -e 44 -c 2 -a 0 -i 0 -k MAC
h -t 91.682523323 -s 1 -d -1 -p RTS -e 44 -c 2 -a 0 -i 0 -k MAC
r -t 91.682875952 -s 3 -d -1 -p RTS -e 44 -c 2 -a 0 -i 0 -k MAC
+ -t 91.682885952 -s 3 -d -1 -p CTS -e 38 -c 2 -a 0 -i 0 -k MAC 
- -t 91.682885952 -s 3 -d -1 -p CTS -e 38 -c 2 -a 0 -i 0 -k MAC
h -t 91.682885952 -s 3 -d -1 -p CTS -e 38 -c 2 -a 0 -i 0 -k MAC
r -t 91.683190582 -s 1 -d -1 -p CTS -e 38 -c 2 -a 0 -i 0 -k MAC
+ -t 91.683200582 -s 1 -d 3 -p cbr -e 584 -c 2 -a 0 -i 5 -k MAC 
- -t 91.683200582 -s 1 -d 3 -p cbr -e 584 -c 2 -a 0 -i 5 -k MAC
h -t 91.683200582 -s 1 -d 3 -p cbr -e 584 -c 2 -a 0 -i 5 -k MAC
r -t 91.687873211 -s 3 -d 3 -p cbr -e 532 -c 2 -a 0 -i 5 -k MAC
+ -t 91.687883211 -s 3 -d -1 -p ACK -e 38 -c 2 -a 0 -i 0 -k MAC 
- -t 91.687883211 -s 3 -d -1 -p ACK -e 38 -c 2 -a 0 -i 0 -k MAC
h -t 91.687883211 -s 3 -d -1 -p ACK -e 38 -c 2 -a 0 -i 0 -k MAC
r -t 91.687898211 -s 3 -d 3 -p cbr -e 532 -c 2 -a 0 -i 5 -k AGT
r -t 91.688187840 -s 1 -d -1 -p ACK -e 38 -c 2 -a 0 -i 0 -k MAC
+ -t 93.866008866 -s 2 -d -1 -p cbr -e 512 -c 2 -a 0 -i 6 -k AGT 
- -t 93.866008866 -s 2 -d -1 -p cbr -e 512 -c 2 -a 0 -i 6 -k AGT
h -t 93.866008866 -s 2 -d -1 -p cbr -e 512 -c 2 -a 0 -i 6 -k AGT
+ -t 93.866083866 -s 2 -d -1 -p RTS -e 44 -c 2 -a 0 -i 0 -k MAC 
- -t 93.866083866 -s 2 -d -1 -p RTS -e 44 -c 2 -a 0 -i 0 -k MAC
h -t 93.866083866 -s 2 -d -1 -p RTS -e 44 -c 2 -a 0 -i 0 -k MAC
r -t 93.866436610 -s 1 -d -1 -p RTS -e 44 -c 2 -a 0 -i 0 -k MAC
+ -t 93.866446610 -s 1 -d -1 -p CTS -e 38 -c 2 -a 0 -i 0 -k MAC 
- -t 93.866446610 -s 1 -d -1 -p CTS -e 38 -c 2 -a 0 -i 0 -k MAC
h -t 93.866446610 -s 1 -d -1 -p CTS -e 38 -c 2 -a 0 -i 0 -k MAC
r -t 93.866751355 -s 2 -d -1 -p CTS -e 38 -c 2 -a 0 -i 0 -k MAC
+ -t 93.866761355 -s 2 -d 1 -p cbr -e 584 -c 2 -a 0 -i 6 -k MAC 
- -t 93.866761355 -s 2 -d 1 -p cbr -e 584 -c 2 -a 0 -i 6 -k MAC
h -t 93.866761355 -s 2 -d 1 -p cbr -e 584 -c 2 -a 0 -i 6 -k MAC
r -t 93.871434099 -s 1 -d 1 -p cbr -e 532 -c 2 -a 0 -i 6 -k MAC
+ -t 93.871444099 -s 1 -d -1 -p ACK -e 38 -c 2 -a 0 -i 0 -k MAC 
- -t 93.871444099 -s 1 -d -1 -p ACK -e 38 -c 2 -a 0 -i 0 -k MAC
h -t 93.871444099 -s 1 -d -1 -p ACK -e 38 -c 2 -a 0 -i 0 -k MAC
r -t 93.871748843 -s 2 -d -1 -p ACK -e 38 -c 2 -a 0 -i 0 -k MAC
+ -t 93.872018099 -s 1 -d -1 -p RTS -e 44 -c 2 -a 0 -i 0 -k MAC 
- -t 93.872018099 -s 1 -d -1 -p RTS -e 44 -c 2 -a 0 -i 0 -k MAC
h -t 93.872018099 -s 1 -d -1 -p RTS -e 44 -c 2 -a 0 -i 0 -k MAC
r -t 93.872370728 -s 3 -d -1 -p RTS -e 44 -c 2 -a 0 -i 0 -k MAC
+ -t 93.872380728 -s 3 -d -1 -p CTS -e 38 -c 2 -a 0 -i 0 -k MAC 
- -t 93.872380728 -s 3 -d -1 -p CTS -e 38 -c 2 -a 0 -i 0 -k MAC
h -t 93.872380728 -s 3 -d -1 -p CTS -e 38 -c 2 -a 0 -i 0 -k MAC
r -t 93.872685357 -s 1 -d -1 -p CTS -e 38 -c 2 -a 0 -i 0 -k MAC
+ -t 93.872695357 -s 1 -d 3 -p cbr -e 584 -c 2 -a 0 -i 6 -k MAC 
- -t 93.872695357 -s 1 -d 3 -p cbr -e 584 -c 2 -a 0 -i 6 -k MAC
h -t 93.872695357 -s 1 -d 3 -p cbr -e 584 -c 2 -a 0 -i 6 -k MAC
r -t 93.877367986 -s 3 -d 3 -p cbr -e 532 -c 2 -a 0 -i 6 -k MAC
+ -t 93.877377986 -s 3 -d -1 -p ACK -e 38 -c 2 -a 0 -i 0 -k MAC 
- -t 93.877377986 -s 3 -d -1 -p ACK -e 38 -c 2 -a 0 -i 0 -k MAC
h -t 93.877377986 -s 3 -d -1 -p ACK -e 38 -c 2 -a 0 -i 0 -k MAC
r -t 93.877392986 -s 3 -d 3 -p cbr -e 532 -c 2 -a 0 -i 6 -k AGT
r -t 93.877682615 -s 1 -d -1 -p ACK -e 38 -c 2 -a 0 -i 0 -k MAC
+ -t 96.263355319 -s 2 -d -1 -p cbr -e 512 -c 2 -a 0 -i 7 -k AGT 
- -t 96.263355319 -s 2 -d -1 -p cbr -e 512 -c 2 -a 0 -i 7 -k AGT
h -t 96.263355319 -s 2 -d -1 -p cbr -e 512 -c 2 -a 0 -i 7 -k AGT
+ -t 96.263510319 -s 2 -d -1 -p RTS -e 44 -c 2 -a 0 -i 0 -k MAC 
- -t 96.263510319 -s 2 -d -1 -p RTS -e 44 -c 2 -a 0 -i 0 -k MAC
h -t 96.263510319 -s 2 -d -1 -p RTS -e 44 -c 2 -a 0 -i 0 -k MAC
r -t 96.263863063 -s 1 -d -1 -p RTS -e 44 -c 2 -a 0 -i 0 -k MAC
+ -t 96.263873063 -s 1 -d -1 -p CTS -e 38 -c 2 -a 0 -i 0 -k MAC 
- -t 96.263873063 -s 1 -d -1 -p CTS -e 38 -c 2 -a 0 -i 0 -k MAC
h -t 96.263873063 -s 1 -d -1 -p CTS -e 38 -c 2 -a 0 -i 0 -k MAC
r -t 96.264177808 -s 2 -d -1 -p CTS -e 38 -c 2 -a 0 -i 0 -k MAC
+ -t 96.264187808 -s 2 -d 1 -p cbr -e 584 -c 2 -a 0 -i 7 -k MAC 
- -t 96.264187808 -s 2 -d 1 -p cbr -e 584 -c 2 -a 0 -i 7 -k MAC
h -t 96.264187808 -s 2 -d 1 -p cbr -e 584 -c 2 -a 0 -i 7 -k MAC
r -t 96.268860552 -s 1 -d 1 -p cbr -e 532 -c 2 -a 0 -i 7 -k MAC
+ -t 96.268870552 -s 1 -d -1 -p ACK -e 38 -c 2 -a 0 -i 0 -k MAC 
- -t 96.268870552 -s 1 -d -1 -p ACK -e 38 -c 2 -a 0 -i 0 -k MAC
h -t 96.268870552 -s 1 -d -1 -p ACK -e 38 -c 2 -a 0 -i 0 -k MAC
r -t 96.269175296 -s 2 -d -1 -p ACK -e 38 -c 2 -a 0 -i 0 -k MAC
+ -t 96.269524552 -s 1 -d -1 -p RTS -e 44 -c 2 -a 0 -i 0 -k MAC 
- -t 96.269524552 -s 1 -d -1 -p RTS -e 44 -c 2 -a 0 -i 0 -k MAC
h -t 96.269524552 -s 1 -d -1 -p RTS -e 44 -c 2 -a 0 -i 0 -k MAC
r -t 96.269877181 -s 3 -d -1 -p RTS -e 44 -c 2 -a 0 -i 0 -k MAC
+ -t 96.269887181 -s 3 -d -1 -p CTS -e 38 -c 2 -a 0 -i 0 -k MAC 
- -t 96.269887181 -s 3 -d -1 -p CTS -e 38 -c 2 -a 0 -i 0 -k MAC
h -t 96.269887181 -s 3 -d -1 -p CTS -e 38 -c 2 -a 0 -i 0 -k MAC
r -t 96.270191810 -s 1 -d -1 -p CTS -e 38 -c 2 -a 0 -i 0 -k MAC
+ -t 96.270201810 -s 1 -d 3 -p cbr -e 584 -c 2 -a 0 -i 7 -k MAC 
- -t 96.270201810 -s 1 -d 3 -p cbr -e 584 -c 2 -a 0 -i 7 -k MAC
h -t 96.270201810 -s 1 -d 3 -p cbr -e 584 -c 2 -a 0 -i 7 -k MAC
r -t 96.274874439 -s 3 -d 3 -p cbr -e 532 -c 2 -a 0 -i 7 -k MAC
+ -t 96.274884439 -s 3 -d -1 -p ACK -e 38 -c 2 -a 0 -i 0 -k MAC 
- -t 96.274884439 -s 3 -d -1 -p ACK -e 38 -c 2 -a 0 -i 0 -k MAC
h -t 96.274884439 -s 3 -d -1 -p ACK -e 38 -c 2 -a 0 -i 0 -k MAC
r -t 96.274899439 -s 3 -d 3 -p cbr -e 532 -c 2 -a 0 -i 7 -k AGT
r -t 96.275189068 -s 1 -d -1 -p ACK -e 38 -c 2 -a 0 -i 0 -k MAC
+ -t 98.114729875 -s 2 -d -1 -p cbr -e 512 -c 2 -a 0 -i 8 -k AGT 
- -t 98.114729875 -s 2 -d -1 -p cbr -e 512 -c 2 -a 0 -i 8 -k AGT
h -t 98.114729875 -s 2 -d -1 -p cbr -e 512 -c 2 -a 0 -i 8 -k AGT
+ -t 98.115084875 -s 2 -d -1 -p RTS -e 44 -c 2 -a 0 -i 0 -k MAC 
- -t 98.115084875 -s 2 -d -1 -p RTS -e 44 -c 2 -a 0 -i 0 -k MAC
h -t 98.115084875 -s 2 -d -1 -p RTS -e 44 -c 2 -a 0 -i 0 -k MAC
r -t 98.115437620 -s 1 -d -1 -p RTS -e 44 -c 2 -a 0 -i 0 -k MAC
+ -t 98.115447620 -s 1 -d -1 -p CTS -e 38 -c 2 -a 0 -i 0 -k MAC 
- -t 98.115447620 -s 1 -d -1 -p CTS -e 38 -c 2 -a 0 -i 0 -k MAC
h -t 98.115447620 -s 1 -d -1 -p CTS -e 38 -c 2 -a 0 -i 0 -k MAC
r -t 98.115752364 -s 2 -d -1 -p CTS -e 38 -c 2 -a 0 -i 0 -k MAC
+ -t 98.115762364 -s 2 -d 1 -p cbr -e 584 -c 2 -a 0 -i 8 -k MAC 
- -t 98.115762364 -s 2 -d 1 -p cbr -e 584 -c 2 -a 0 -i 8 -k MAC
h -t 98.115762364 -s 2 -d 1 -p cbr -e 584 -c 2 -a 0 -i 8 -k MAC
r -t 98.120435108 -s 1 -d 1 -p cbr -e 532 -c 2 -a 0 -i 8 -k MAC
+ -t 98.120445108 -s 1 -d -1 -p ACK -e 38 -c 2 -a 0 -i 0 -k MAC 
- -t 98.120445108 -s 1 -d -1 -p ACK -e 38 -c 2 -a 0 -i 0 -k MAC
h -t 98.120445108 -s 1 -d -1 -p ACK -e 38 -c 2 -a 0 -i 0 -k MAC
r -t 98.120749853 -s 2 -d -1 -p ACK -e 38 -c 2 -a 0 -i 0 -k MAC
+ -t 98.120819108 -s 1 -d -1 -p RTS -e 44 -c 2 -a 0 -i 0 -k MAC 
- -t 98.120819108 -s 1 -d -1 -p RTS -e 44 -c 2 -a 0 -i 0 -k MAC
h -t 98.120819108 -s 1 -d -1 -p RTS -e 44 -c 2 -a 0 -i 0 -k MAC
r -t 98.121171738 -s 3 -d -1 -p RTS -e 44 -c 2 -a 0 -i 0 -k MAC
+ -t 98.121181738 -s 3 -d -1 -p CTS -e 38 -c 2 -a 0 -i 0 -k MAC 
- -t 98.121181738 -s 3 -d -1 -p CTS -e 38 -c 2 -a 0 -i 0 -k MAC
h -t 98.121181738 -s 3 -d -1 -p CTS -e 38 -c 2 -a 0 -i 0 -k MAC
r -t 98.121486367 -s 1 -d -1 -p CTS -e 38 -c 2 -a 0 -i 0 -k MAC
+ -t 98.121496367 -s 1 -d 3 -p cbr -e 584 -c 2 -a 0 -i 8 -k MAC 
- -t 98.121496367 -s 1 -d 3 -p cbr -e 584 -c 2 -a 0 -i 8 -k MAC
h -t 98.121496367 -s 1 -d 3 -p cbr -e 584 -c 2 -a 0 -i 8 -k MAC
r -t 98.126168996 -s 3 -d 3 -p cbr -e 532 -c 2 -a 0 -i 8 -k MAC
+ -t 98.126178996 -s 3 -d -1 -p ACK -e 38 -c 2 -a 0 -i 0 -k MAC 
- -t 98.126178996 -s 3 -d -1 -p ACK -e 38 -c 2 -a 0 -i 0 -k MAC
h -t 98.126178996 -s 3 -d -1 -p ACK -e 38 -c 2 -a 0 -i 0 -k MAC
r -t 98.126193996 -s 3 -d 3 -p cbr -e 532 -c 2 -a 0 -i 8 -k AGT
r -t 98.126483625 -s 1 -d -1 -p ACK -e 38 -c 2 -a 0 -i 0 -k MAC
+ -t 101.008362254 -s 2 -d -1 -p cbr -e 512 -c 2 -a 0 -i 9 -k AGT 
- -t 101.008362254 -s 2 -d -1 -p cbr -e 512 -c 2 -a 0 -i 9 -k AGT
h -t 101.008362254 -s 2 -d -1 -p cbr -e 512 -c 2 -a 0 -i 9 -k AGT
+ -t 101.008737254 -s 2 -d -1 -p RTS -e 44 -c 2 -a 0 -i 0 -k MAC 
- -t 101.008737254 -s 2 -d -1 -p RTS -e 44 -c 2 -a 0 -i 0 -k MAC
h -t 101.008737254 -s 2 -d -1 -p RTS -e 44 -c 2 -a 0 -i 0 -k MAC
r -t 101.009089998 -s 1 -d -1 -p RTS -e 44 -c 2 -a 0 -i 0 -k MAC
+ -t 101.009099998 -s 1 -d -1 -p CTS -e 38 -c 2 -a 0 -i 0 -k MAC 
- -t 101.009099998 -s 1 -d -1 -p CTS -e 38 -c 2 -a 0 -i 0 -k MAC
h -t 101.009099998 -s 1 -d -1 -p CTS -e 38 -c 2 -a 0 -i 0 -k MAC
r -t 101.009404743 -s 2 -d -1 -p CTS -e 38 -c 2 -a 0 -i 0 -k MAC
+ -t 101.009414743 -s 2 -d 1 -p cbr -e 584 -c 2 -a 0 -i 9 -k MAC 
- -t 101.009414743 -s 2 -d 1 -p cbr -e 584 -c 2 -a 0 -i 9 -k MAC
h -t 101.009414743 -s 2 -d 1 -p cbr -e 584 -c 2 -a 0 -i 9 -k MAC
r -t 101.014087487 -s 1 -d 1 -p cbr -e 532 -c 2 -a 0 -i 9 -k MAC
+ -t 101.014097487 -s 1 -d -1 -p ACK -e 38 -c 2 -a 0 -i 0 -k MAC 
- -t 101.014097487 -s 1 -d -1 -p ACK -e 38 -c 2 -a 0 -i 0 -k MAC
h -t 101.014097487 -s 1 -d -1 -p ACK -e 38 -c 2 -a 0 -i 0 -k MAC
r -t 101.014402231 -s 2 -d -1 -p ACK -e 38 -c 2 -a 0 -i 0 -k MAC
+ -t 101.014491487 -s 1 -d -1 -p RTS -e 44 -c 2 -a 0 -i 0 -k MAC 
- -t 101.014491487 -s 1 -d -1 -p RTS -e 44 -c 2 -a 0 -i 0 -k MAC
h -t 101.014491487 -s 1 -d -1 -p RTS -e 44 -c 2 -a 0 -i 0 -k MAC
r -t 101.014844116 -s 3 -d -1 -p RTS -e 44 -c 2 -a 0 -i 0 -k MAC
+ -t 101.014854116 -s 3 -d -1 -p CTS -e 38 -c 2 -a 0 -i 0 -k MAC 
- -t 101.014854116 -s 3 -d -1 -p CTS -e 38 -c 2 -a 0 -i 0 -k MAC
h -t 101.014854116 -s 3 -d -1 -p CTS -e 38 -c 2 -a 0 -i 0 -k MAC
r -t 101.015158745 -s 1 -d -1 -p CTS -e 38 -c 2 -a 0 -i 0 -k MAC
+ -t 101.015168745 -s 1 -d 3 -p cbr -e 584 -c 2 -a 0 -i 9 -k MAC 
- -t 101.015168745 -s 1 -d 3 -p cbr -e 584 -c 2 -a 0 -i 9 -k MAC
h -t 101.015168745 -s 1 -d 3 -p cbr -e 584 -c 2 -a 0 -i 9 -k MAC
r -t 101.019841374 -s 3 -d 3 -p cbr -e 532 -c 2 -a 0 -i 9 -k MAC
+ -t 101.019851374 -s 3 -d -1 -p ACK -e 38 -c 2 -a 0 -i 0 -k MAC 
- -t 101.019851374 -s 3 -d -1 -p ACK -e 38 -c 2 -a 0 -i 0 -k MAC
h -t 101.019851374 -s 3 -d -1 -p ACK -e 38 -c 2 -a 0 -i 0 -k MAC
r -t 101.019866374 -s 3 -d 3 -p cbr -e 532 -c 2 -a 0 -i 9 -k AGT