n -t * -s 0  -x 143.43750921878001 -y 94.217567273200004 -Z 0 -z 20  -v circle -c green
n -t * -s 1  -x 304.65324424678403 -y 167.07632596983501 -Z 0 -z 20  -v circle -c green
n -t * -s 2  -x 81.810723227699 -y 152.82536050561001 -Z 0 -z 20  -v circle -c green
n -t * -s 3  -x 325.834153339995 -y 354.615563074325 -Z 0 -z 20  -v circle -c green
n -t * -s 4  -x 23.768638624379001 -y 159.50938100993099 -Z 0 -z 20  -v circle -c green
V -t * -v 1.0a5 -a 0
W -t * -x 670 -y 670
A -t * -n 1 -p 0 -o 0xffffffff -c 31 -a 1
A -t * -h 1 -m 2147483647 -s 0
+ -t 0.008945709 -s 0 -d -1 -p message -e 84 -c 2 -a 0 -i 0 -k MAC 
- -t 0.008945709 -s 0 -d -1 -p message -e 84 -c 2 -a 0 -i 0 -k MAC
h -t 0.008945709 -s 0 -d -1 -p message -e 84 -c 2 -a 0 -i 0 -k MAC
r -t 0.009617992 -s 2 -d -1 -p message -e 32 -c 2 -a 0 -i 0 -k MAC
r -t 0.009618163 -s 4 -d -1 -p message -e 32 -c 2 -a 0 -i 0 -k MAC
r -t 0.009618299 -s 1 -d -1 -p message -e 32 -c 2 -a 0 -i 0 -k MAC
+ -t 0.035112973 -s 2 -d -1 -p message -e 84 -c 2 -a 0 -i 1 -k MAC 
- -t 0.035112973 -s 2 -d -1 -p message -e 84 -c 2 -a 0 -i 1 -k MAC
h -t 0.035112973 -s 2 -d -1 -p message -e 84 -c 2 -a 0 -i 1 -k MAC
r -t 0.035785167 -s 4 -d -1 -p message -e 32 -c 2 -a 0 -i 1 -k MAC
r -t 0.035785256 -s 0 -d -1 -p message -e 32 -c 2 -a 0 -i 1 -k MAC
r -t 0.035785717 -s 1 -d -1 -p message -e 32 -c 2 -a 0 -i 1 -k MAC
+ -t 0.177108288 -s 3 -d -1 -p message -e 84 -c 2 -a 0 -i 2 -k MAC 
- -t 0.177108288 -s 3 -d -1 -p message -e 84 -c 2 -a 0 -i 2 -k MAC
h -t 0.177108288 -s 3 -d -1 -p message -e 84 -c 2 -a 0 -i 2 -k MAC
r -t 0.177780917 -s 1 -d -1 -p message -e 32 -c 2 -a 0 -i 2 -k MAC
+ -t 0.886998331 -s 4 -d -1 -p message -e 84 -c 2 -a 0 -i 3 -k MAC 
- -t 0.886998331 -s 4 -d -1 -p message -e 84 -c 2 -a 0 -i 3 -k MAC
h -t 0.886998331 -s 4 -d -1 -p message -e 84 -c 2 -a 0 -i 3 -k MAC
r -t 0.887670526 -s 2 -d -1 -p message -e 32 -c 2 -a 0 -i 3 -k MAC
r -t 0.887670786 -s 0 -d -1 -p message -e 32 -c 2 -a 0 -i 3 -k MAC
+ -t 1.115343842 -s 1 -d -1 -p message -e 84 -c 2 -a 0 -i 4 -k MAC 
- -t 1.115343842 -s 1 -d -1 -p message -e 84 -c 2 -a 0 -i 4 -k MAC
h -t 1.115343842 -s 1 -d -1 -p message -e 84 -c 2 -a 0 -i 4 -k MAC
r -t 1.116016432 -s 0 -d -1 -p message -e 32 -c 2 -a 0 -i 4 -k MAC
r -t 1.116016471 -s 3 -d -1 -p message -e 32 -c 2 -a 0 -i 4 -k MAC
r -t 1.116016587 -s 2 -d -1 -p message -e 32 -c 2 -a 0 -i 4 -k MAC
+ -t 12.014779152 -s 2 -d -1 -p message -e 84 -c 2 -a 0 -i 5 -k MAC 
- -t 12.014779152 -s 2 -d -1 -p message -e 84 -c 2 -a 0 -i 5 -k MAC
h -t 12.014779152 -s 2 -d -1 -p message -e 84 -c 2 -a 0 -i 5 -k MAC
r -t 12.015451347 -s 4 -d -1 -p message -e 32 -c 2 -a 0 -i 5 -k MAC
r -t 12.015451435 -s 0 -d -1 -p message -e 32 -c 2 -a 0 -i 5 -k MAC
r -t 12.015451896 -s 1 -d -1 -p message -e 32 -c 2 -a 0 -i 5 -k MAC
+ -t 12.017001232 -s 4 -d -1 -p message -e 84 -c 2 -a 0 -i 6 -k MAC 
- -t 12.017001232 -s 4 -d -1 -p message -e 84 -c 2 -a 0 -i 6 -k MAC
h -t 12.017001232 -s 4 -d -1 -p message -e 84 -c 2 -a 0 -i 6 -k MAC
r -t 12.017673426 -s 2 -d -1 -p message -e 32 -c 2 -a 0 -i 6 -k MAC
r -t 12.017673686 -s 0 -d -1 -p message -e 32 -c 2 -a 0 -i 6 -k MAC
+ -t 12.018638972 -s 1 -d -1 -p message -e 84 -c 2 -a 0 -i 7 -k MAC 
- -t 12.018638972 -s 1 -d -1 -p message -e 84 -c 2 -a 0 -i 7 -k MAC
h -t 12.018638972 -s 1 -d -1 -p message -e 84 -c 2 -a 0 -i 7 -k MAC
r -t 12.019311561 -s 0 -d -1 -p message -e 32 -c 2 -a 0 -i 7 -k MAC
r -t 12.019311601 -s 3 -d -1 -p message -e 32 -c 2 -a 0 -i 7 -k MAC
r -t 12.019311716 -s 2 -d -1 -p message -e 32 -c 2 -a 0 -i 7 -k MAC
+ -t 12.045014711 -s 0 -d -1 -p message -e 84 -c 2 -a 0 -i 8 -k MAC 
- -t 12.045014711 -s 0 -d -1 -p message -e 84 -c 2 -a 0 -i 8 -k MAC
h -t 12.045014711 -s 0 -d -1 -p message -e 84 -c 2 -a 0 -i 8 -k MAC
r -t 12.045686994 -s 2 -d -1 -p message -e 32 -c 2 -a 0 -i 8 -k MAC
r -t 12.045687165 -s 4 -d -1 -p message -e 32 -c 2 -a 0 -i 8 -k MAC
r -t 12.045687301 -s 1 -d -1 -p message -e 32 -c 2 -a 0 -i 8 -k MAC
+ -t 12.428922873 -s 0 -d -1 -p message -e 96 -c 2 -a 0 -i 9 -k MAC 
- -t 12.428922873 -s 0 -d -1 -p message -e 96 -c 2 -a 0 -i 9 -k MAC
h -t 12.428922873 -s 0 -d -1 -p message -e 96 -c 2 -a 0 -i 9 -k MAC
r -t 12.429691157 -s 2 -d -1 -p message -e 44 -c 2 -a 0 -i 9 -k MAC
r -t 12.429691328 -s 4 -d -1 -p message -e 44 -c 2 -a 0 -i 9 -k MAC
r -t 12.429691463 -s 1 -d -1 -p message -e 44 -c 2 -a 0 -i 9 -k MAC
+ -t 12.446504266 -s 2 -d -1 -p message -e 84 -c 2 -a 0 -i 10 -k MAC 
- -t 12.446504266 -s 2 -d -1 -p message -e 84 -c 2 -a 0 -i 10 -k MAC
h -t 12.446504266 -s 2 -d -1 -p message -e 84 -c 2 -a 0 -i 10 -k MAC
r -t 12.447176461 -s 4 -d -1 -p message -e 32 -c 2 -a 0 -i 10 -k MAC
r -t 12.447176550 -s 0 -d -1 -p message -e 32 -c 2 -a 0 -i 10 -k MAC
r -t 12.447177011 -s 1 -d -1 -p message -e 32 -c 2 -a 0 -i 10 -k MAC
+ -t 12.794171740 -s 4 -d -1 -p message -e 84 -c 2 -a 0 -i 11 -k MAC 
- -t 12.794171740 -s 4 -d -1 -p message -e 84 -c 2 -a 0 -i 11 -k MAC
h -t 12.794171740 -s 4 -d -1 -p message -e 84 -c 2 -a 0 -i 11 -k MAC
r -t 12.794843935 -s 2 -d -1 -p message -e 32 -c 2 -a 0 -i 11 -k MAC
r -t 12.794844194 -s 0 -d -1 -p message -e 32 -c 2 -a 0 -i 11 -k MAC
+ -t 13.012768236 -s 1 -d -1 -p message -e 84 -c 2 -a 0 -i 12 -k MAC 
- -t 13.012768236 -s 1 -d -1 -p message -e 84 -c 2 -a 0 -i 12 -k MAC
h -t 13.012768236 -s 1 -d -1 -p message -e 84 -c 2 -a 0 -i 12 -k MAC
r -t 13.013440826 -s 0 -d -1 -p message -e 32 -c 2 -a 0 -i 12 -k MAC
r -t 13.013440865 -s 3 -d -1 -p message -e 32 -c 2 -a 0 -i 12 -k MAC
r -t 13.013440980 -s 2 -d -1 -p message -e 32 -c 2 -a 0 -i 12 -k MAC
+ -t 13.125203028 -s 3 -d -1 -p message -e 84 -c 2 -a 0 -i 13 -k MAC 
- -t 13.125203028 -s 3 -d -1 -p message -e 84 -c 2 -a 0 -i 13 -k MAC
h -t 13.125203028 -s 3 -d -1 -p message -e 84 -c 2 -a 0 -i 13 -k MAC
r -t 13.125875657 -s 1 -d -1 -p message -e 32 -c 2 -a 0 -i 13 -k MAC
+ -t 13.334223113 -s 1 -d -1 -p message -e 96 -c 2 -a 0 -i 14 -k MAC 
- -t 13.334223113 -s 1 -d -1 -p message -e 96 -c 2 -a 0 -i 14 -k MAC
h -t 13.334223113 -s 1 -d -1 -p message -e 96 -c 2 -a 0 -i 14 -k MAC
r -t 13.334991703 -s 0 -d -1 -p message -e 44 -c 2 -a 0 -i 14 -k MAC
r -t 13.334991742 -s 3 -d -1 -p message -e 44 -c 2 -a 0 -i 14 -k MAC
r -t 13.334991857 -s 2 -d -1 -p message -e 44 -c 2 -a 0 -i 14 -k MAC
+ -t 13.834703935 -s 3 -d -1 -p message -e 84 -c 2 -a 0 -i 18 -k MAC 
- -t 13.834703935 -s 3 -d -1 -p message -e 84 -c 2 -a 0 -i 18 -k MAC
h -t 13.834703935 -s 3 -d -1 -p message -e 84 -c 2 -a 0 -i 18 -k MAC
r -t 13.835376564 -s 1 -d -1 -p message -e 32 -c 2 -a 0 -i 18 -k MAC
+ -t 24.026600973 -s 3 -d -1 -p message -e 96 -c 2 -a 0 -i 19 -k MAC 
- -t 24.026600973 -s 3 -d -1 -p message -e 96 -c 2 -a 0 -i 19 -k MAC
h -t 24.026600973 -s 3 -d -1 -p message -e 96 -c 2 -a 0 -i 19 -k MAC
r -t 24.027369602 -s 1 -d -1 -p message -e 44 -c 2 -a 0 -i 19 -k MAC
+ -t 24.109021791 -s 2 -d -1 -p message -e 120 -c 2 -a 0 -i 20 -k MAC 
- -t 24.109021791 -s 2 -d -1 -p message -e 120 -c 2 -a 0 -i 20 -k MAC
h -t 24.109021791 -s 2 -d -1 -p message -e 120 -c 2 -a 0 -i 20 -k MAC
r -t 24.109981986 -s 4 -d -1 -p message -e 68 -c 2 -a 0 -i 20 -k MAC
r -t 24.109982075 -s 0 -d -1 -p message -e 68 -c 2 -a 0 -i 20 -k MAC
r -t 24.109982536 -s 1 -d -1 -p message -e 68 -c 2 -a 0 -i 20 -k MAC
+ -t 24.382389440 -s 0 -d -1 -p message -e 108 -c 2 -a 0 -i 21 -k MAC 
- -t 24.382389440 -s 0 -d -1 -p message -e 108 -c 2 -a 0 -i 21 -k MAC
h -t 24.382389440 -s 0 -d -1 -p message -e 108 -c 2 -a 0 -i 21 -k MAC
r -t 24.383253724 -s 2 -d -1 -p message -e 56 -c 2 -a 0 -i 21 -k MAC
r -t 24.383253895 -s 4 -d -1 -p message -e 56 -c 2 -a 0 -i 21 -k MAC
r -t 24.383254030 -s 1 -d -1 -p message -e 56 -c 2 -a 0 -i 21 -k MAC
+ -t 24.691490763 -s 1 -d -1 -p message -e 96 -c 2 -a 0 -i 22 -k MAC 
- -t 24.691490763 -s 1 -d -1 -p message -e 96 -c 2 -a 0 -i 22 -k MAC
h -t 24.691490763 -s 1 -d -1 -p message -e 96 -c 2 -a 0 -i 22 -k MAC
r -t 24.692259353 -s 0 -d -1 -p message -e 44 -c 2 -a 0 -i 22 -k MAC
r -t 24.692259392 -s 3 -d -1 -p message -e 44 -c 2 -a 0 -i 22 -k MAC
r -t 24.692259507 -s 2 -d -1 -p message -e 44 -c 2 -a 0 -i 22 -k MAC
+ -t 25.303117935 -s 4 -d -1 -p message -e 84 -c 2 -a 0 -i 24 -k MAC 
- -t 25.303117935 -s 4 -d -1 -p message -e 84 -c 2 -a 0 -i 24 -k MAC
h -t 25.303117935 -s 4 -d -1 -p message -e 84 -c 2 -a 0 -i 24 -k MAC
r -t 25.303790130 -s 2 -d -1 -p message -e 32 -c 2 -a 0 -i 24 -k MAC
r -t 25.303790389 -s 0 -d -1 -p message -e 32 -c 2 -a 0 -i 24 -k MAC
+ -t 28.633258860 -s 3 -d -1 -p message -e 96 -c 2 -a 0 -i 26 -k MAC 
- -t 28.633258860 -s 3 -d -1 -p message -e 96 -c 2 -a 0 -i 26 -k MAC
h -t 28.633258860 -s 3 -d -1 -p message -e 96 -c 2 -a 0 -i 26 -k MAC
r -t 28.634027489 -s 1 -d -1 -p message -e 44 -c 2 -a 0 -i 26 -k MAC
+ -t 36.111921871 -s 4 -d -1 -p message -e 108 -c 2 -a 0 -i 27 -k MAC 
- -t 36.111921871 -s 4 -d -1 -p message -e 108 -c 2 -a 0 -i 27 -k MAC
h -t 36.111921871 -s 4 -d -1 -p message -e 108 -c 2 -a 0 -i 27 -k MAC
r -t 36.112786065 -s 2 -d -1 -p message -e 56 -c 2 -a 0 -i 27 -k MAC
r -t 36.112786325 -s 0 -d -1 -p message -e 56 -c 2 -a 0 -i 27 -k MAC
+ -t 36.114726311 -s 1 -d -1 -p message -e 108 -c 2 -a 0 -i 28 -k MAC 
- -t 36.114726311 -s 1 -d -1 -p message -e 108 -c 2 -a 0 -i 28 -k MAC
h -t 36.114726311 -s 1 -d -1 -p message -e 108 -c 2 -a 0 -i 28 -k MAC
r -t 36.115590901 -s 0 -d -1 -p message -e 56 -c 2 -a 0 -i 28 -k MAC
r -t 36.115590940 -s 3 -d -1 -p message -e 56 -c 2 -a 0 -i 28 -k MAC
r -t 36.115591055 -s 2 -d -1 -p message -e 56 -c 2 -a 0 -i 28 -k MAC
+ -t 37.205366755 -s 2 -d -1 -p message -e 132 -c 2 -a 0 -i 29 -k MAC 
- -t 37.205366755 -s 2 -d -1 -p message -e 132 -c 2 -a 0 -i 29 -k MAC
h -t 37.205366755 -s 2 -d -1 -p message -e 132 -c 2 -a 0 -i 29 -k MAC
r -t 37.206422949 -s 4 -d -1 -p message -e 80 -c 2 -a 0 -i 29 -k MAC
r -t 37.206423038 -s 0 -d -1 -p message -e 80 -c 2 -a 0 -i 29 -k MAC
r -t 37.206423499 -s 1 -d -1 -p message -e 80 -c 2 -a 0 -i 29 -k MAC
+ -t 38.387444651 -s 0 -d -1 -p message -e 120 -c 2 -a 0 -i 30 -k MAC 
- -t 38.387444651 -s 0 -d -1 -p message -e 120 -c 2 -a 0 -i 30 -k MAC
h -t 38.387444651 -s 0 -d -1 -p message -e 120 -c 2 -a 0 -i 30 -k MAC
r -t 38.388404934 -s 2 -d -1 -p message -e 68 -c 2 -a 0 -i 30 -k MAC
r -t 38.388405105 -s 4 -d -1 -p message -e 68 -c 2 -a 0 -i 30 -k MAC
r -t 38.388405240 -s 1 -d -1 -p message -e 68 -c 2 -a 0 -i 30 -k MAC
+ -t 39.315211369 -s 4 -d -1 -p message -e 84 -c 2 -a 0 -i 31 -k MAC 
- -t 39.315211369 -s 4 -d -1 -p message -e 84 -c 2 -a 0 -i 31 -k MAC
h -t 39.315211369 -s 4 -d -1 -p message -e 84 -c 2 -a 0 -i 31 -k MAC
r -t 39.315883564 -s 2 -d -1 -p message -e 32 -c 2 -a 0 -i 31 -k MAC
r -t 39.315883824 -s 0 -d -1 -p message -e 32 -c 2 -a 0 -i 31 -k MAC
+ -t 39.319164837 -s 1 -d -1 -p message -e 96 -c 2 -a 0 -i 32 -k MAC 
- -t 39.319164837 -s 1 -d -1 -p message -e 96 -c 2 -a 0 -i 32 -k MAC
h -t 39.319164837 -s 1 -d -1 -p message -e 96 -c 2 -a 0 -i 32 -k MAC
r -t 39.319933427 -s 0 -d -1 -p message -e 44 -c 2 -a 0 -i 32 -k MAC
r -t 39.319933466 -s 3 -d -1 -p message -e 44 -c 2 -a 0 -i 32 -k MAC
r -t 39.319933581 -s 2 -d -1 -p message -e 44 -c 2 -a 0 -i 32 -k MAC
+ -t 42.940776021 -s 3 -d -1 -p message -e 84 -c 2 -a 0 -i 33 -k MAC 
- -t 42.940776021 -s 3 -d -1 -p message -e 84 -c 2 -a 0 -i 33 -k MAC
h -t 42.940776021 -s 3 -d -1 -p message -e 84 -c 2 -a 0 -i 33 -k MAC
r -t 42.941448650 -s 1 -d -1 -p message -e 32 -c 2 -a 0 -i 33 -k MAC
+ -t 48.120483162 -s 3 -d -1 -p message -e 132 -c 2 -a 0 -i 34 -k MAC 
- -t 48.120483162 -s 3 -d -1 -p message -e 132 -c 2 -a 0 -i 34 -k MAC
h -t 48.120483162 -s 3 -d -1 -p message -e 132 -c 2 -a 0 -i 34 -k MAC
r -t 48.121539791 -s 1 -d -1 -p message -e 80 -c 2 -a 0 -i 34 -k MAC
+ -t 49.208924470 -s 4 -d -1 -p message -e 132 -c 2 -a 0 -i 36 -k MAC 
- -t 49.208924470 -s 4 -d -1 -p message -e 132 -c 2 -a 0 -i 36 -k MAC
h -t 49.208924470 -s 4 -d -1 -p message -e 132 -c 2 -a 0 -i 36 -k MAC
r -t 49.209980664 -s 2 -d -1 -p message -e 80 -c 2 -a 0 -i 36 -k MAC
r -t 49.209980924 -s 0 -d -1 -p message -e 80 -c 2 -a 0 -i 36 -k MAC
+ -t 50.781795617 -s 0 -d -1 -p message -e 120 -c 2 -a 0 -i 37 -k MAC 
- -t 50.781795617 -s 0 -d -1 -p message -e 120 -c 2 -a 0 -i 37 -k MAC
h -t 50.781795617 -s 0 -d -1 -p message -e 120 -c 2 -a 0 -i 37 -k MAC
r -t 50.782755900 -s 2 -d -1 -p message -e 68 -c 2 -a 0 -i 37 -k MAC
r -t 50.782756071 -s 4 -d -1 -p message -e 68 -c 2 -a 0 -i 37 -k MAC
r -t 50.782756207 -s 1 -d -1 -p message -e 68 -c 2 -a 0 -i 37 -k MAC
+ -t 51.066850280 -s 2 -d -1 -p message -e 108 -c 2 -a 0 -i 38 -k MAC 
- -t 51.066850280 -s 2 -d -1 -p message -e 108 -c 2 -a 0 -i 38 -k MAC
h -t 51.066850280 -s 2 -d -1 -p message -e 108 -c 2 -a 0 -i 38 -k MAC
r -t 51.067714475 -s 4 -d -1 -p message -e 56 -c 2 -a 0 -i 38 -k MAC
r -t 51.067714563 -s 0 -d -1 -p message -e 56 -c 2 -a 0 -i 38 -k MAC
r -t 51.067715024 -s 1 -d -1 -p message -e 56 -c 2 -a 0 -i 38 -k MAC
+ -t 53.401703313 -s 1 -d -1 -p message -e 96 -c 2 -a 0 -i 39 -k MAC 
- -t 53.401703313 -s 1 -d -1 -p message -e 96 -c 2 -a 0 -i 39 -k MAC
h -t 53.401703313 -s 1 -d -1 -p message -e 96 -c 2 -a 0 -i 39 -k MAC
r -t 53.402471903 -s 0 -d -1 -p message -e 44 -c 2 -a 0 -i 39 -k MAC
r -t 53.402471942 -s 3 -d -1 -p message -e 44 -c 2 -a 0 -i 39 -k MAC
r -t 53.402472057 -s 2 -d -1 -p message -e 44 -c 2 -a 0 -i 39 -k MAC
+ -t 61.021694985 -s 3 -d -1 -p message -e 120 -c 2 -a 0 -i 40 -k MAC 
- -t 61.021694985 -s 3 -d -1 -p message -e 120 -c 2 -a 0 -i 40 -k MAC
h -t 61.021694985 -s 3 -d -1 -p message -e 120 -c 2 -a 0 -i 40 -k MAC
r -t 61.022655614 -s 1 -d -1 -p message -e 68 -c 2 -a 0 -i 40 -k MAC
+ -t 63.830134807 -s 4 -d -1 -p message -e 132 -c 2 -a 0 -i 41 -k MAC 
- -t 63.830134807 -s 4 -d -1 -p message -e 132 -c 2 -a 0 -i 41 -k MAC
h -t 63.830134807 -s 4 -d -1 -p message -e 132 -c 2 -a 0 -i 41 -k MAC
r -t 63.831191002 -s 2 -d -1 -p message -e 80 -c 2 -a 0 -i 41 -k MAC
r -t 63.831191262 -s 0 -d -1 -p message -e 80 -c 2 -a 0 -i 41 -k MAC
+ -t 64.790835648 -s 0 -d -1 -p message -e 120 -c 2 -a 0 -i 42 -k MAC 
- -t 64.790835648 -s 0 -d -1 -p message -e 120 -c 2 -a 0 -i 42 -k MAC
h -t 64.790835648 -s 0 -d -1 -p message -e 120 -c 2 -a 0 -i 42 -k MAC
r -t 64.791795931 -s 2 -d -1 -p message -e 68 -c 2 -a 0 -i 42 -k MAC
r -t 64.791796102 -s 4 -d -1 -p message -e 68 -c 2 -a 0 -i 42 -k MAC
r -t 64.791796237 -s 1 -d -1 -p message -e 68 -c 2 -a 0 -i 42 -k MAC
+ -t 65.318366237 -s 1 -d -1 -p message -e 108 -c 2 -a 0 -i 43 -k MAC 
- -t 65.318366237 -s 1 -d -1 -p message -e 108 -c 2 -a 0 -i 43 -k MAC
h -t 65.318366237 -s 1 -d -1 -p message -e 108 -c 2 -a 0 -i 43 -k MAC
r -t 65.319230827 -s 0 -d -1 -p message -e 56 -c 2 -a 0 -i 43 -k MAC
r -t 65.319230866 -s 3 -d -1 -p message -e 56 -c 2 -a 0 -i 43 -k MAC
r -t 65.319230981 -s 2 -d -1 -p message -e 56 -c 2 -a 0 -i 43 -k MAC
+ -t 65.502514817 -s 2 -d -1 -p message -e 96 -c 2 -a 0 -i 44 -k MAC 
- -t 65.502514817 -s 2 -d -1 -p message -e 96 -c 2 -a 0 -i 44 -k MAC
h -t 65.502514817 -s 2 -d -1 -p message -e 96 -c 2 -a 0 -i 44 -k MAC
r -t 65.503283012 -s 4 -d -1 -p message -e 44 -c 2 -a 0 -i 44 -k MAC
r -t 65.503283101 -s 0 -d -1 -p message -e 44 -c 2 -a 0 -i 44 -k MAC
r -t 65.503283562 -s 1 -d -1 -p message -e 44 -c 2 -a 0 -i 44 -k MAC
+ -t 74.914915466 -s 3 -d -1 -p message -e 120 -c 2 -a 0 -i 45 -k MAC 
- -t 74.914915466 -s 3 -d -1 -p message -e 120 -c 2 -a 0 -i 45 -k MAC
h -t 74.914915466 -s 3 -d -1 -p message -e 120 -c 2 -a 0 -i 45 -k MAC
r -t 74.915876095 -s 1 -d -1 -p message -e 68 -c 2 -a 0 -i 45 -k MAC
+ -t 76.361520760 -s 4 -d -1 -p message -e 132 -c 2 -a 0 -i 46 -k MAC 
- -t 76.361520760 -s 4 -d -1 -p message -e 132 -c 2 -a 0 -i 46 -k MAC
h -t 76.361520760 -s 4 -d -1 -p message -e 132 -c 2 -a 0 -i 46 -k MAC
r -t 76.362576955 -s 2 -d -1 -p message -e 80 -c 2 -a 0 -i 46 -k MAC
r -t 76.362577214 -s 0 -d -1 -p message -e 80 -c 2 -a 0 -i 46 -k MAC
+ -t 76.896783642 -s 0 -d -1 -p message -e 120 -c 2 -a 0 -i 47 -k MAC 
- -t 76.896783642 -s 0 -d -1 -p message -e 120 -c 2 -a 0 -i 47 -k MAC
h -t 76.896783642 -s 0 -d -1 -p message -e 120 -c 2 -a 0 -i 47 -k MAC
r -t 76.897743926 -s 2 -d -1 -p message -e 68 -c 2 -a 0 -i 47 -k MAC
r -t 76.897744097 -s 4 -d -1 -p message -e 68 -c 2 -a 0 -i 47 -k MAC
r -t 76.897744232 -s 1 -d -1 -p message -e 68 -c 2 -a 0 -i 47 -k MAC
+ -t 79.946747027 -s 1 -d -1 -p message -e 108 -c 2 -a 0 -i 48 -k MAC 
- -t 79.946747027 -s 1 -d -1 -p message -e 108 -c 2 -a 0 -i 48 -k MAC
h -t 79.946747027 -s 1 -d -1 -p message -e 108 -c 2 -a 0 -i 48 -k MAC
r -t 79.947611616 -s 0 -d -1 -p message -e 56 -c 2 -a 0 -i 48 -k MAC
r -t 79.947611656 -s 3 -d -1 -p message -e 56 -c 2 -a 0 -i 48 -k MAC
r -t 79.947611771 -s 2 -d -1 -p message -e 56 -c 2 -a 0 -i 48 -k MAC
+ -t 80.303762705 -s 2 -d -1 -p message -e 96 -c 2 -a 0 -i 49 -k MAC 
- -t 80.303762705 -s 2 -d -1 -p message -e 96 -c 2 -a 0 -i 49 -k MAC
h -t 80.303762705 -s 2 -d -1 -p message -e 96 -c 2 -a 0 -i 49 -k MAC
r -t 80.304530900 -s 4 -d -1 -p message -e 44 -c 2 -a 0 -i 49 -k MAC
r -t 80.304530989 -s 0 -d -1 -p message -e 44 -c 2 -a 0 -i 49 -k MAC
r -t 80.304531450 -s 1 -d -1 -p message -e 44 -c 2 -a 0 -i 49 -k MAC
+ -t 82.557023746 -s 2 -d -1 -p cbr -e 512 -c 2 -a 0 -i 50 -k AGT 
- -t 82.557023746 -s 2 -d -1 -p cbr -e 512 -c 2 -a 0 -i 50 -k AGT
h -t 82.557023746 -s 2 -d -1 -p cbr -e 512 -c 2 -a 0 -i 50 -k AGT
+ -t 82.557078746 -s 2 -d -1 -p ARP -e 80 -c 2 -a 0 -i 0 -k MAC 
- -t 82.557078746 -s 2 -d -1 -p ARP -e 80 -c 2 -a 0 -i 0 -k MAC
h -t 82.557078746 -s 2 -d -1 -p ARP -e 80 -c 2 -a 0 -i 0 -k MAC
r -t 82.557718941 -s 4 -d -1 -p ARP -e 28 -c 2 -a 0 -i 0 -k MAC
r -t 82.557719030 -s 0 -d -1 -p ARP -e 28 -c 2 -a 0 -i 0 -k MAC
r -t 82.557719491 -s 1 -d -1 -p ARP -e 28 -c 2 -a 0 -i 0 -k MAC
+ -t 82.558094491 -s 1 -d -1 -p RTS -e 44 -c 2 -a 0 -i 0 -k MAC 
- -t 82.558094491 -s 1 -d -1 -p RTS -e 44 -c 2 -a 0 -i 0 -k MAC
h -t 82.558094491 -s 1 -d -1 -p RTS -e 44 -c 2 -a 0 -i 0 -k MAC
r -t 82.558447235 -s 2 -d -1 -p RTS -e 44 -c 2 -a 0 -i 0 -k MAC
+ -t 82.558457235 -s 2 -d -1 -p CTS -e 38 -c 2 -a 0 -i 0 -k MAC 
- -t 82.558457235 -s 2 -d -1 -p CTS -e 38 -c 2 -a 0 -i 0 -k MAC
h -t 82.558457235 -s 2 -d -1 -p CTS -e 38 -c 2 -a 0 -i 0 -k MAC
r -t 82.558761979 -s 1 -d -1 -p CTS -e 38 -c 2 -a 0 -i 0 -k MAC
+ -t 82.558771979 -s 1 -d -1 -p ARP -e 80 -c 2 -a 0 -i 0 -k MAC 
- -t 82.558771979 -s 1 -d -1 -p ARP -e 80 -c 2 -a 0 -i 0 -k MAC
h -t 82.558771979 -s 1 -d -1 -p ARP -e 80 -c 2 -a 0 -i 0 -k MAC
r -t 82.559412724 -s 2 -d -1 -p ARP -e 28 -c 2 -a 0 -i 0 -k MAC
+ -t 82.559422724 -s 2 -d -1 -p ACK -e 38 -c 2 -a 0 -i 0 -k MAC 
- -t 82.559422724 -s 2 -d -1 -p ACK -e 38 -c 2 -a 0 -i 0 -k MAC
h -t 82.559422724 -s 2 -d -1 -p ACK -e 38 -c 2 -a 0 -i 0 -k MAC
r -t 82.559727468 -s 1 -d -1 -p ACK -e 38 -c 2 -a 0 -i 0 -k MAC
+ -t 82.560016724 -s 2 -d -1 -p RTS -e 44 -c 2 -a 0 -i 0 -k MAC 
- -t 82.560016724 -s 2 -d -1 -p RTS -e 44 -c 2 -a 0 -i 0 -k MAC
h -t 82.560016724 -s 2 -d -1 -p RTS -e 44 -c 2 -a 0 -i 0 -k MAC
r -t 82.560369468 -s 1 -d -1 -p RTS -e 44 -c 2 -a 0 -i 0 -k MAC
+ -t 82.560379468 -s 1 -d -1 -p CTS -e 38 -c 2 -a 0 -i 0 -k MAC 
- -t 82.560379468 -s 1 -d -1 -p CTS -e 38 -c 2 -a 0 -i 0 -k MAC
h -t 82.560379468 -s 1 -d -1 -p CTS -e 38 -c 2 -a 0 -i 0 -k MAC
r -t 82.560684212 -s 2 -d -1 -p CTS -e 38 -c 2 -a 0 -i 0 -k MAC
+ -t 82.560694212 -s 2 -d 1 -p cbr -e 584 -c 2 -a 0 -i 50 -k MAC 
- -t 82.560694212 -s 2 -d 1 -p cbr -e 584 -c 2 -a 0 -i 50 -k MAC
h -t 82.560694212 -s 2 -d 1 -p cbr -e 584 -c 2 -a 0 -i 50 -k MAC
r -t 82.565366957 -s 1 -d 1 -p cbr -e 532 -c 2 -a 0 -i 50 -k MAC
+ -t 82.565376957 -s 1 -d -1 -p ACK -e 38 -c 2 -a 0 -i 0 -k MAC 
- -t 82.565376957 -s 1 -d -1 -p ACK -e 38 -c 2 -a 0 -i 0 -k MAC
h -t 82.565376957 -s 1 -d -1 -p ACK -e 38 -c 2 -a 0 -i 0 -k MAC
r -t 82.565681701 -s 2 -d -1 -p ACK -e 38 -c 2 -a 0 -i 0 -k MAC
+ -t 82.565870957 -s 1 -d -1 -p ARP -e 80 -c 2 -a 0 -i 0 -k MAC 
- -t 82.565870957 -s 1 -d -1 -p ARP -e 80 -c 2 -a 0 -i 0 -k MAC
h -t 82.565870957 -s 1 -d -1 -p ARP -e 80 -c 2 -a 0 -i 0 -k MAC
r -t 82.566511546 -s 0 -d -1 -p ARP -e 28 -c 2 -a 0 -i 0 -k MAC
r -t 82.566511586 -s 3 -d -1 -p ARP -e 28 -c 2 -a 0 -i 0 -k MAC
r -t 82.566511701 -s 2 -d -1 -p ARP -e 28 -c 2 -a 0 -i 0 -k MAC
+ -t 82.566966586 -s 3 -d -1 -p RTS -e 44 -c 2 -a 0 -i 0 -k MAC 
- -t 82.566966586 -s 3 -d -1 -p RTS -e 44 -c 2 -a 0 -i 0 -k MAC
h -t 82.566966586 -s 3 -d -1 -p RTS -e 44 -c 2 -a 0 -i 0 -k MAC
r -t 82.567319215 -s 1 -d -1 -p RTS -e 44 -c 2 -a 0 -i 0 -k MAC
+ -t 82.567329215 -s 1 -d -1 -p CTS -e 38 -c 2 -a 0 -i 0 -k MAC 
- -t 82.567329215 -s 1 -d -1 -p CTS -e 38 -c 2 -a 0 -i 0 -k MAC
h -t 82.567329215 -s 1 -d -1 -p CTS -e 38 -c 2 -a 0 -i 0 -k MAC
r -t 82.567633844 -s 3 -d -1 -p CTS -e 38 -c 2 -a 0 -i 0 -k MAC
+ -t 82.567643844 -s 3 -d -1 -p ARP -e 80 -c 2 -a 0 -i 0 -k MAC 
- -t 82.567643844 -s 3 -d -1 -p ARP -e 80 -c 2 -a 0 -i 0 -k MAC
h -t 82.567643844 -s 3 -d -1 -p ARP -e 80 -c 2 -a 0 -i 0 -k MAC
r -t 82.568284473 -s 1 -d -1 -p ARP -e 28 -c 2 -a 0 -i 0 -k MAC
+ -t 82.568294473 -s 1 -d -1 -p ACK -e 38 -c 2 -a 0 -i 0 -k MAC 
- -t 82.568294473 -s 1 -d -1 -p ACK -e 38 -c 2 -a 0 -i 0 -k MAC
h -t 82.568294473 -s 1 -d -1 -p ACK -e 38 -c 2 -a 0 -i 0 -k MAC
r -t 82.568599102 -s 3 -d -1 -p ACK -e 38 -c 2 -a 0 -i 0 -k MAC
+ -t 82.568768473 -s 1 -d -1 -p RTS -e 44 -c 2 -a 0 -i 0 -k MAC 
- -t 82.568768473 -s 1 -d -1 -p RTS -e 44 -c 2 -a 0 -i 0 -k MAC
h -t 82.568768473 -s 1 -d -1 -p RTS -e 44 -c 2 -a 0 -i 0 -k MAC
r -t 82.569121102 -s 3 -d -1 -p RTS -e 44 -c 2 -a 0 -i 0 -k MAC
+ -t 82.569131102 -s 3 -d -1 -p CTS -e 38 -c 2 -a 0 -i 0 -k MAC 
- -t 82.569131102 -s 3 -d -1 -p CTS -e 38 -c 2 -a 0 -i 0 -k MAC
h -t 82.569131102 -s 3 -d -1 -p CTS -e 38 -c 2 -a 0 -i 0 -k MAC
r -t 82.569435731 -s 1 -d -1 -p CTS -e 38 -c 2 -a 0 -i 0 -k MAC
+ -t 82.569445731 -s 1 -d 3 -p cbr -e 584 -c 2 -a 0 -i 50 -k MAC 
- -t 82.569445731 -s 1 -d 3 -p cbr -e 584 -c 2 -a 0 -i 50 -k MAC
h -t 82.569445731 -s 1 -d 3 -p cbr -e 584 -c 2 -a 0 -i 50 -k MAC
r -t 82.574118360 -s 3 -d 3 -p cbr -e 532 -c 2 -a 0 -i 50 -k MAC
+ -t 82.574128360 -s 3 -d -1 -p ACK -e 38 -c 2 -a 0 -i 0 -k MAC 
- -t 82.574128360 -s 3 -d -1 -p ACK -e 38 -c 2 -a 0 -i 0 -k MAC
h -t 82.574128360 -s 3 -d -1 -p ACK -e 38 -c 2 -a 0 -i 0 -k MAC
r -t 82.574143360 -s 3 -d 3 -p cbr -e 532 -c 2 -a 0 -i 50 -k AGT
r -t 82.574432989 -s 1 -d -1 -p ACK -e 38 -c 2 -a 0 -i 0 -k MAC
+ -t 83.640169743 -s 2 -d -1 -p cbr -e 512 -c 2 -a 0 -i 51 -k AGT 
- -t 83.640169743 -s 2 -d -1 -p cbr -e 512 -c 2 -a 0 -i 51 -k AGT
h -t 83.640169743 -s 2 -d -1 -p cbr -e 512 -c 2 -a 0 -i 51 -k AGT
+ -t 83.640324743 -s 2 -d -1 -p RTS -e 44 -c 2 -a 0 -i 0 -k MAC 
- -t 83.640324743 -s 2 -d -1 -p RTS -e 44 -c 2 -a 0 -i 0 -k MAC
h -t 83.640324743 -s 2 -d -1 -p RTS -e 44 -c 2 -a 0 -i 0 -k MAC
r -t 83.640677487 -s 1 -d -1 -p RTS -e 44 -c 2 -a 0 -i 0 -k MAC
+ -t 83.640687487 -s 1 -d -1 -p CTS -e 38 -c 2 -a 0 -i 0 -k MAC 
- -t 83.640687487 -s 1 -d -1 -p CTS -e 38 -c 2 -a 0 -i 0 -k MAC
h -t 83.640687487 -s 1 -d -1 -p CTS -e 38 -c 2 -a 0 -i 0 -k MAC
r -t 83.640992231 -s 2 -d -1 -p CTS -e 38 -c 2 -a 0 -i 0 -k MAC
+ -t 83.641002231 -s 2 -d 1 -p cbr -e 584 -c 2 -a 0 -i 51 -k MAC 
- -t 83.641002231 -s 2 -d 1 -p cbr -e 584 -c 2 -a 0 -i 51 -k MAC
h -t 83.641002231 -s 2 -d 1 -p cbr -e 584 -c 2 -a 0 -i 51 -k MAC
r -t 83.645674976 -s 1 -d 1 -p cbr -e 532 -c 2 -a 0 -i 51 -k MAC
+ -t 83.645684976 -s 1 -d -1 -p ACK -e 38 -c 2 -a 0 -i 0 -k MAC 
- -t 83.645684976 -s 1 -d -1 -p ACK -e 38 -c 2 -a 0 -i 0 -k MAC
h -t 83.645684976 -s 1 -d -1 -p ACK -e 38 -c 2 -a 0 -i 0 -k MAC
r -t 83.645989720 -s 2 -d -1 -p ACK -e 38 -c 2 -a 0 -i 0 -k MAC
+ -t 83.646598976 -s 1 -d -1 -p RTS -e 44 -c 2 -a 0 -i 0 -k MAC 
- -t 83.646598976 -s 1 -d -1 -p RTS -e 44 -c 2 -a 0 -i 0 -k MAC
h -t 83.646598976 -s 1 -d -1 -p RTS -e 44 -c 2 -a 0 -i 0 -k MAC
r -t 83.646951605 -s 3 -d -1 -p RTS -e 44 -c 2 -a 0 -i 0 -k MAC
+ -t 83.646961605 -s 3 -d -1 -p CTS -e 38 -c 2 -a 0 -i 0 -k MAC 
- -t 83.646961605 -s 3 -d -1 -p CTS -e 38 -c 2 -a 0 -i 0 -k MAC
h -t 83.646961605 -s 3 -d -1 -p CTS -e 38 -c 2 -a 0 -i 0 -k MAC
r -t 83.647266234 -s 1 -d -1 -p CTS -e 38 -c 2 -a 0 -i 0 -k MAC
+ -t 83.647276234 -s 1 -d 3 -p cbr -e 584 -c 2 -a 0 -i 51 -k MAC 
- -t 83.647276234 -s 1 -d 3 -p cbr -e 584 -c 2 -a 0 -i 51 -k MAC
h -t 83.647276234 -s 1 -d 3 -p cbr -e 584 -c 2 -a 0 -i 51 -k MAC
r -t 83.651948863 -s 3 -d 3 -p cbr -e 532 -c 2 -a 0 -i 51 -k MAC
+ -t 83.651958863 -s 3 -d -1 -p ACK -e 38 -c 2 -a 0 -i 0 -k MAC 
- -t 83.651958863 -s 3 -d -1 -p ACK -e 38 -c 2 -a 0 -i 0 -k MAC
h -t 83.651958863 -s 3 -d -1 -p ACK -e 38 -c 2 -a 0 -i 0 -k MAC
r -t 83.651973863 -s 3 -d 3 -p cbr -e 532 -c 2 -a 0 -i 51 -k AGT
r -t 83.652263492 -s 1 -d -1 -p ACK -e 38 -c 2 -a 0 -i 0 -k MAC
+ -t 86.300260547 -s 2 -d -1 -p cbr -e 512 -c 2 -a 0 -i 52 -k AGT 
- -t 86.300260547 -s 2 -d -1 -p cbr -e 512 -c 2 -a 0 -i 52 -k AGT
h -t 86.300260547 -s 2 -d -1 -p cbr -e 512 -c 2 -a 0 -i 52 -k AGT
+ -t 86.300695547 -s 2 -d -1 -p RTS -e 44 -c 2 -a 0 -i 0 -k MAC 
- -t 86.300695547 -s 2 -d -1 -p RTS -e 44 -c 2 -a 0 -i 0 -k MAC
h -t 86.300695547 -s 2 -d -1 -p RTS -e 44 -c 2 -a 0 -i 0 -k MAC
r -t 86.301048292 -s 1 -d -1 -p RTS -e 44 -c 2 -a 0 -i 0 -k MAC
+ -t 86.301058292 -s 1 -d -1 -p CTS -e 38 -c 2 -a 0 -i 0 -k MAC 
- -t 86.301058292 -s 1 -d -1 -p CTS -e 38 -c 2 -a 0 -i 0 -k MAC
h -t 86.301058292 -s 1 -d -1 -p CTS -e 38 -c 2 -a 0 -i 0 -k MAC
r -t 86.301363036 -s 2 -d -1 -p CTS -e 38 -c 2 -a 0 -i 0 -k MAC
+ -t 86.301373036 -s 2 -d 1 -p cbr -e 584 -c 2 -a 0 -i 52 -k MAC 
- -t 86.301373036 -s 2 -d 1 -p cbr -e 584 -c 2 -a 0 -i 52 -k MAC
h -t 86.301373036 -s 2 -d 1 -p cbr -e 584 -c 2 -a 0 -i 52 -k MAC
r -t 86.306045780 -s 1 -d 1 -p cbr -e 532 -c 2 -a 0 -i 52 -k MAC
+ -t 86.306055780 -s 1 -d -1 -p ACK -e 38 -c 2 -a 0 -i 0 -k MAC 
- -t 86.306055780 -s 1 -d -1 -p ACK -e 38 -c 2 -a 0 -i 0 -k MAC
h -t 86.306055780 -s 1 -d -1 -p ACK -e 38 -c 2 -a 0 -i 0 -k MAC
r -t 86.306360525 -s 2 -d -1 -p ACK -e 38 -c 2 -a 0 -i 0 -k MAC
+ -t 86.306509780 -s 1 -d -1 -p RTS -e 44 -c 2 -a 0 -i 0 -k MAC 
- -t 86.306509780 -s 1 -d -1 -p RTS -e 44 -c 2 -a 0 -i 0 -k MAC
h -t 86.306509780 -s 1 -d -1 -p RTS -e 44 -c 2 -a 0 -i 0 -k MAC
r -t 86.306862410 -s 3 -d -1 -p RTS -e 44 -c 2 -a 0 -i 0 -k MAC
+ -t 86.306872410 -s 3 -d -1 -p CTS -e 38 -c 2 -a 0 -i 0 -k MAC 
- -t 86.306872410 -s 3 -d -1 -p CTS -e 38 -c 2 -a 0 -i 0 -k MAC
h -t 86.306872410 -s 3 -d -1 -p CTS -e 38 -c 2 -a 0 -i 0 -k MAC
r -t 86.307177039 -s 1 -d -1 -p CTS -e 38 -c 2 -a 0 -i 0 -k MAC
+ -t 86.307187039 -s 1 -d 3 -p cbr -e 584 -c 2 -a 0 -i 52 -k MAC 
- -t 86.307187039 -s 1 -d 3 -p cbr -e 584 -c 2 -a 0 -i 52 -k MAC
h -t 86.307187039 -s 1 -d 3 -p cbr -e 584 -c 2 -a 0 -i 52 -k MAC
r -t 86.311859668 -s 3 -d 3 -p cbr -e 532 -c 2 -a 0 -i 52 -k MAC
+ -t 86.311869668 -s 3 -d -1 -p ACK -e 38 -c 2 -a 0 -i 0 -k MAC 
- -t 86.311869668 -s 3 -d -1 -p ACK -e 38 -c 2 -a 0 -i 0 -k MAC
h -t 86.311869668 -s 3 -d -1 -p ACK -e 38 -c 2 -a 0 -i 0 -k MAC
r -t 86.311884668 -s 3 -d 3 -p cbr -e 532 -c 2 -a 0 -i 52 -k AGT
r -t 86.312174297 -s 1 -d -1 -p ACK -e 38 -c 2 -a 0 -i 0 -k MAC
+ -t 88.134319315 -s 2 -d -1 -p cbr -e 512 -c 2 -a 0 -i 53 -k AGT 
- -t 88.134319315 -s 2 -d -1 -p cbr -e 512 -c 2 -a 0 -i 53 -k AGT
h -t 88.134319315 -s 2 -d -1 -p cbr -e 512 -c 2 -a 0 -i 53 -k AGT
+ -t 88.134494315 -s 2 -d -1 -p RTS -e 44 -c 2 -a 0 -i 0 -k MAC 
- -t 88.134494315 -s 2 -d -1 -p RTS -e 44 -c 2 -a 0 -i 0 -k MAC
h -t 88.134494315 -s 2 -d -1 -p RTS -e 44 -c 2 -a 0 -i 0 -k MAC
r -t 88.134847059 -s 1 -d -1 -p RTS -e 44 -c 2 -a 0 -i 0 -k MAC
+ -t 88.134857059 -s 1 -d -1 -p CTS -e 38 -c 2 -a 0 -i 0 -k MAC 
- -t 88.134857059 -s 1 -d -1 -p CTS -e 38 -c 2 -a 0 -i 0 -k MAC
h -t 88.134857059 -s 1 -d -1 -p CTS -e 38 -c 2 -a 0 -i 0 -k MAC
r -t 88.135161804 -s 2 -d -1 -p CTS -e 38 -c 2 -a 0 -i 0 -k MAC
+ -t 88.135171804 -s 2 -d 1 -p cbr -e 584 -c 2 -a 0 -i 53 -k MAC 
- -t 88.135171804 -s 2 -d 1 -p cbr -e 584 -c 2 -a 0 -i 53 -k MAC
h -t 88.135171804 -s 2 -d 1 -p cbr -e 584 -c 2 -a 0 -i 53 -k MAC
r -t 88.139844548 -s 1 -d 1 -p cbr -e 532 -c 2 -a 0 -i 53 -k MAC
+ -t 88.139854548 -s 1 -d -1 -p ACK -e 38 -c 2 -a 0 -i 0 -k MAC 
- -t 88.139854548 -s 1 -d -1 -p ACK -e 38 -c 2 -a 0 -i 0 -k MAC
h -t 88.139854548 -s 1 -d -1 -p ACK -e 38 -c 2 -a 0 -i 0 -k MAC
r -t 88.140159292 -s 2 -d -1 -p ACK -e 38 -c 2 -a 0 -i 0 -k MAC
+ -t 88.140668548 -s 1 -d -1 -p RTS -e 44 -c 2 -a 0 -i 0 -k MAC 
- -t 88.140668548 -s 1 -d -1 -p RTS -e 44 -c 2 -a 0 -i 0 -k MAC
h -t 88.140668548 -s 1 -d -1 -p RTS -e 44 -c 2 -a 0 -i 0 -k MAC
r -t 88.141021177 -s 3 -d -1 -p RTS -e 44 -c 2 -a 0 -i 0 -k MAC
+ -t 88.141031177 -s 3 -d -1 -p CTS -e 38 -c 2 -a 0 -i 0 -k MAC 
- -t 88.141031177 -s 3 -d -1 -p CTS -e 38 -c 2 -a 0 -i 0 -k MAC
h -t 88.141031177 -s 3 -d -1 -p CTS -e 38 -c 2 -a 0 -i 0 -k MAC
r -t 88.141335806 -s 1 -d -1 -p CTS -e 38 -c 2 -a 0 -i 0 -k MAC
+ -t 88.141345806 -s 1 -d 3 -p cbr -e 584 -c 2 -a 0 -i 53 -k MAC 
- -t 88.141345806 -s 1 -d 3 -p cbr -e 584 -c 2 -a 0 -i 53 -k MAC
h -t 88.141345806 -s 1 -d 3 -p cbr -e 584 -c 2 -a 0 -i 53 -k MAC
r -t 88.146018435 -s 3 -d 3 -p cbr -e 532 -c 2 -a 0 -i 53 -k MAC
+ -t 88.146028435 -s 3 -d -1 -p ACK -e 38 -c 2 -a 0 -i 0 -k MAC 
- -t 88.146028435 -s 3 -d -1 -p ACK -e 38 -c 2 -a 0 -i 0 -k MAC
h -t 88.146028435 -s 3 -d -1 -p ACK -e 38 -c 2 -a 0 -i 0 -k MAC
r -t 88.146043435 -s 3 -d 3 -p cbr -e 532 -c 2 -a 0 -i 53 -k AGT
r -t 88.146333064 -s 1 -d -1 -p ACK -e 38 -c 2 -a 0 -i 0 -k MAC
+ -t 88.591542581 -s 4 -d -1 -p message -e 132 -c 2 -a 0 -i 54 -k MAC 
- -t 88.591542581 -s 4 -d -1 -p message -e 132 -c 2 -a 0 -i 54 -k MAC
h -t 88.591542581 -s 4 -d -1 -p message -e 132 -c 2 -a 0 -i 54 -k MAC
r -t 88.592598776 -s 2 -d -1 -p message -e 80 -c 2 -a 0 -i 54 -k MAC
r -t 88.592599036 -s 0 -d -1 -p message -e 80 -c 2 -a 0 -i 54 -k MAC
+ -t 89.812494304 -s 3 -d -1 -p message -e 132 -c 2 -a 0 -i 55 -k MAC 
- -t 89.812494304 -s 3 -d -1 -p message -e 132 -c 2 -a 0 -i 55 -k MAC
h -t 89.812494304 -s 3 -d -1 -p message -e 132 -c 2 -a 0 -i 55 -k MAC
r -t 89.813550933 -s 1 -d -1 -p message -e 80 -c 2 -a 0 -i 55 -k MAC
+ -t 90.684569711 -s 0 -d -1 -p message -e 120 -c 2 -a 0 -i 56 -k MAC 
- -t 90.684569711 -s 0 -d -1 -p message -e 120 -c 2 -a 0 -i 56 -k MAC
h -t 90.684569711 -s 0 -d -1 -p message -e 120 -c 2 -a 0 -i 56 -k MAC
r -t 90.685529994 -s 2 -d -1 -p message -e 68 -c 2 -a 0 -i 56 -k MAC