n -t * -s 0  -x 143.43750921878001 -y 94.217567273200004 -Z 0 -z 20  -v circle -c green
n -t * -s 1  -x 304.65324424678403 -y 167.07632596983501 -Z 0 -z 20  -v circle -c green
n -t * -s 2  -x 81.810723227699 -y 152.82536050561001 -Z 0 -z 20  -v circle -c green
n -t * -s 3  -x 325.834153339995 -y 354.615563074325 -Z 0 -z 20  -v circle -c green
n -t * -s 4  -x 23.768638624379001 -y 159.50938100993099 -Z 0 -z 20  -v circle -c green
V -t * -v 1.0a5 -a 0
W -t * -x 670 -y 670
A -t * -n 1 -p 0 -o 0xffffffff -c 31 -a 1
A -t * -h 1 -m 2147483647 -s 0
+ -t 0.008945709 -s 0 -d -1 -p message -e 86 -c 2 -a 0 -i 0 -k MAC 
- -t 0.008945709 -s 0 -d -1 -p message -e 86 -c 2 -a 0 -i 0 -k MAC
h -t 0.008945709 -s 0 -d -1 -p message -e 86 -c 2 -a 0 -i 0 -k MAC
r -t 0.009633992 -s 2 -d -1 -p message -e 32 -c 2 -a 0 -i 0 -k MAC
r -t 0.009634163 -s 4 -d -1 -p message -e 32 -c 2 -a 0 -i 0 -k MAC
r -t 0.009634299 -s 1 -d -1 -p message -e 32 -c 2 -a 0 -i 0 -k MAC
+ -t 0.035112973 -s 2 -d -1 -p message -e 86 -c 2 -a 0 -i 1 -k MAC 
- -t 0.035112973 -s 2 -d -1 -p message -e 86 -c 2 -a 0 -i 1 -k MAC
h -t 0.035112973 -s 2 -d -1 -p message -e 86 -c 2 -a 0 -i 1 -k MAC
r -t 0.035801167 -s 4 -d -1 -p message -e 32 -c 2 -a 0 -i 1 -k MAC
r -t 0.035801256 -s 0 -d -1 -p message -e 32 -c 2 -a 0 -i 1 -k MAC
r -t 0.035801717 -s 1 -d -1 -p message -e 32 -c 2 -a 0 -i 1 -k MAC
+ -t 0.177108288 -s 3 -d -1 -p message -e 86 -c 2 -a 0 -i 2 -k MAC 
- -t 0.177108288 -s 3 -d -1 -p message -e 86 -c 2 -a 0 -i 2 -k MAC
h -t 0.177108288 -s 3 -d -1 -p message -e 86 -c 2 -a 0 -i 2 -k MAC
r -t 0.177796917 -s 1 -d -1 -p message -e 32 -c 2 -a 0 -i 2 -k MAC
+ -t 0.886998331 -s 4 -d -1 -p message -e 86 -c 2 -a 0 -i 3 -k MAC 
- -t 0.886998331 -s 4 -d -1 -p message -e 86 -c 2 -a 0 -i 3 -k MAC
h -t 0.886998331 -s 4 -d -1 -p message -e 86 -c 2 -a 0 -i 3 -k MAC
r -t 0.887686526 -s 2 -d -1 -p message -e 32 -c 2 -a 0 -i 3 -k MAC
r -t 0.887686786 -s 0 -d -1 -p message -e 32 -c 2 -a 0 -i 3 -k MAC
+ -t 1.115343842 -s 1 -d -1 -p message -e 86 -c 2 -a 0 -i 4 -k MAC 
- -t 1.115343842 -s 1 -d -1 -p message -e 86 -c 2 -a 0 -i 4 -k MAC
h -t 1.115343842 -s 1 -d -1 -p message -e 86 -c 2 -a 0 -i 4 -k MAC
r -t 1.116032432 -s 0 -d -1 -p message -e 32 -c 2 -a 0 -i 4 -k MAC
r -t 1.116032471 -s 3 -d -1 -p message -e 32 -c 2 -a 0 -i 4 -k MAC
r -t 1.116032587 -s 2 -d -1 -p message -e 32 -c 2 -a 0 -i 4 -k MAC
+ -t 12.014795152 -s 2 -d -1 -p message -e 86 -c 2 -a 0 -i 5 -k MAC 
- -t 12.014795152 -s 2 -d -1 -p message -e 86 -c 2 -a 0 -i 5 -k MAC
h -t 12.014795152 -s 2 -d -1 -p message -e 86 -c 2 -a 0 -i 5 -k MAC
r -t 12.015483347 -s 4 -d -1 -p message -e 32 -c 2 -a 0 -i 5 -k MAC
r -t 12.015483435 -s 0 -d -1 -p message -e 32 -c 2 -a 0 -i 5 -k MAC
r -t 12.015483896 -s 1 -d -1 -p message -e 32 -c 2 -a 0 -i 5 -k MAC
+ -t 12.017017232 -s 4 -d -1 -p message -e 86 -c 2 -a 0 -i 6 -k MAC 
- -t 12.017017232 -s 4 -d -1 -p message -e 86 -c 2 -a 0 -i 6 -k MAC
h -t 12.017017232 -s 4 -d -1 -p message -e 86 -c 2 -a 0 -i 6 -k MAC
r -t 12.017705426 -s 2 -d -1 -p message -e 32 -c 2 -a 0 -i 6 -k MAC
r -t 12.017705686 -s 0 -d -1 -p message -e 32 -c 2 -a 0 -i 6 -k MAC
+ -t 12.018654972 -s 1 -d -1 -p message -e 86 -c 2 -a 0 -i 7 -k MAC 
- -t 12.018654972 -s 1 -d -1 -p message -e 86 -c 2 -a 0 -i 7 -k MAC
h -t 12.018654972 -s 1 -d -1 -p message -e 86 -c 2 -a 0 -i 7 -k MAC
r -t 12.019343561 -s 0 -d -1 -p message -e 32 -c 2 -a 0 -i 7 -k MAC
r -t 12.019343601 -s 3 -d -1 -p message -e 32 -c 2 -a 0 -i 7 -k MAC
r -t 12.019343716 -s 2 -d -1 -p message -e 32 -c 2 -a 0 -i 7 -k MAC
+ -t 12.045030711 -s 0 -d -1 -p message -e 86 -c 2 -a 0 -i 8 -k MAC 
- -t 12.045030711 -s 0 -d -1 -p message -e 86 -c 2 -a 0 -i 8 -k MAC
h -t 12.045030711 -s 0 -d -1 -p message -e 86 -c 2 -a 0 -i 8 -k MAC
r -t 12.045718994 -s 2 -d -1 -p message -e 32 -c 2 -a 0 -i 8 -k MAC
r -t 12.045719165 -s 4 -d -1 -p message -e 32 -c 2 -a 0 -i 8 -k MAC
r -t 12.045719301 -s 1 -d -1 -p message -e 32 -c 2 -a 0 -i 8 -k MAC
+ -t 12.428922873 -s 0 -d -1 -p message -e 98 -c 2 -a 0 -i 9 -k MAC 
- -t 12.428922873 -s 0 -d -1 -p message -e 98 -c 2 -a 0 -i 9 -k MAC
h -t 12.428922873 -s 0 -d -1 -p message -e 98 -c 2 -a 0 -i 9 -k MAC
r -t 12.429707157 -s 2 -d -1 -p message -e 44 -c 2 -a 0 -i 9 -k MAC
r -t 12.429707328 -s 4 -d -1 -p message -e 44 -c 2 -a 0 -i 9 -k MAC
r -t 12.429707463 -s 1 -d -1 -p message -e 44 -c 2 -a 0 -i 9 -k MAC
+ -t 12.446504266 -s 2 -d -1 -p message -e 86 -c 2 -a 0 -i 10 -k MAC 
- -t 12.446504266 -s 2 -d -1 -p message -e 86 -c 2 -a 0 -i 10 -k MAC
h -t 12.446504266 -s 2 -d -1 -p message -e 86 -c 2 -a 0 -i 10 -k MAC
r -t 12.447192461 -s 4 -d -1 -p message -e 32 -c 2 -a 0 -i 10 -k MAC
r -t 12.447192550 -s 0 -d -1 -p message -e 32 -c 2 -a 0 -i 10 -k MAC
r -t 12.447193011 -s 1 -d -1 -p message -e 32 -c 2 -a 0 -i 10 -k MAC
+ -t 12.794171740 -s 4 -d -1 -p message -e 86 -c 2 -a 0 -i 11 -k MAC 
- -t 12.794171740 -s 4 -d -1 -p message -e 86 -c 2 -a 0 -i 11 -k MAC
h -t 12.794171740 -s 4 -d -1 -p message -e 86 -c 2 -a 0 -i 11 -k MAC
r -t 12.794859935 -s 2 -d -1 -p message -e 32 -c 2 -a 0 -i 11 -k MAC
r -t 12.794860194 -s 0 -d -1 -p message -e 32 -c 2 -a 0 -i 11 -k MAC
+ -t 13.012784236 -s 1 -d -1 -p message -e 86 -c 2 -a 0 -i 12 -k MAC 
- -t 13.012784236 -s 1 -d -1 -p message -e 86 -c 2 -a 0 -i 12 -k MAC
h -t 13.012784236 -s 1 -d -1 -p message -e 86 -c 2 -a 0 -i 12 -k MAC
r -t 13.013472826 -s 0 -d -1 -p message -e 32 -c 2 -a 0 -i 12 -k MAC
r -t 13.013472865 -s 3 -d -1 -p message -e 32 -c 2 -a 0 -i 12 -k MAC
r -t 13.013472980 -s 2 -d -1 -p message -e 32 -c 2 -a 0 -i 12 -k MAC
+ -t 13.125219028 -s 3 -d -1 -p message -e 86 -c 2 -a 0 -i 13 -k MAC 
- -t 13.125219028 -s 3 -d -1 -p message -e 86 -c 2 -a 0 -i 13 -k MAC
h -t 13.125219028 -s 3 -d -1 -p message -e 86 -c 2 -a 0 -i 13 -k MAC
r -t 13.125907657 -s 1 -d -1 -p message -e 32 -c 2 -a 0 -i 13 -k MAC
+ -t 13.334223113 -s 1 -d -1 -p message -e 98 -c 2 -a 0 -i 14 -k MAC 
- -t 13.334223113 -s 1 -d -1 -p message -e 98 -c 2 -a 0 -i 14 -k MAC
h -t 13.334223113 -s 1 -d -1 -p message -e 98 -c 2 -a 0 -i 14 -k MAC
r -t 13.335007703 -s 0 -d -1 -p message -e 44 -c 2 -a 0 -i 14 -k MAC
r -t 13.335007742 -s 3 -d -1 -p message -e 44 -c 2 -a 0 -i 14 -k MAC
r -t 13.335007857 -s 2 -d -1 -p message -e 44 -c 2 -a 0 -i 14 -k MAC
+ -t 13.834703935 -s 3 -d -1 -p message -e 86 -c 2 -a 0 -i 18 -k MAC 
- -t 13.834703935 -s 3 -d -1 -p message -e 86 -c 2 -a 0 -i 18 -k MAC
h -t 13.834703935 -s 3 -d -1 -p message -e 86 -c 2 -a 0 -i 18 -k MAC
r -t 13.835392564 -s 1 -d -1 -p message -e 32 -c 2 -a 0 -i 18 -k MAC
+ -t 24.026632973 -s 3 -d -1 -p message -e 98 -c 2 -a 0 -i 19 -k MAC 
- -t 24.026632973 -s 3 -d -1 -p message -e 98 -c 2 -a 0 -i 19 -k MAC
h -t 24.026632973 -s 3 -d -1 -p message -e 98 -c 2 -a 0 -i 19 -k MAC
r -t 24.027417602 -s 1 -d -1 -p message -e 44 -c 2 -a 0 -i 19 -k MAC
+ -t 24.109021791 -s 2 -d -1 -p message -e 122 -c 2 -a 0 -i 20 -k MAC 
- -t 24.109021791 -s 2 -d -1 -p message -e 122 -c 2 -a 0 -i 20 -k MAC
h -t 24.109021791 -s 2 -d -1 -p message -e 122 -c 2 -a 0 -i 20 -k MAC
r -t 24.109997986 -s 4 -d -1 -p message -e 68 -c 2 -a 0 -i 20 -k MAC
r -t 24.109998075 -s 0 -d -1 -p message -e 68 -c 2 -a 0 -i 20 -k MAC
r -t 24.109998536 -s 1 -d -1 -p message -e 68 -c 2 -a 0 -i 20 -k MAC
+ -t 24.382389440 -s 0 -d -1 -p message -e 110 -c 2 -a 0 -i 21 -k MAC 
- -t 24.382389440 -s 0 -d -1 -p message -e 110 -c 2 -a 0 -i 21 -k MAC
h -t 24.382389440 -s 0 -d -1 -p message -e 110 -c 2 -a 0 -i 21 -k MAC
r -t 24.383269724 -s 2 -d -1 -p message -e 56 -c 2 -a 0 -i 21 -k MAC
r -t 24.383269895 -s 4 -d -1 -p message -e 56 -c 2 -a 0 -i 21 -k MAC
r -t 24.383270030 -s 1 -d -1 -p message -e 56 -c 2 -a 0 -i 21 -k MAC
+ -t 24.691490763 -s 1 -d -1 -p message -e 98 -c 2 -a 0 -i 22 -k MAC 
- -t 24.691490763 -s 1 -d -1 -p message -e 98 -c 2 -a 0 -i 22 -k MAC
h -t 24.691490763 -s 1 -d -1 -p message -e 98 -c 2 -a 0 -i 22 -k MAC
r -t 24.692275353 -s 0 -d -1 -p message -e 44 -c 2 -a 0 -i 22 -k MAC
r -t 24.692275392 -s 3 -d -1 -p message -e 44 -c 2 -a 0 -i 22 -k MAC
r -t 24.692275507 -s 2 -d -1 -p message -e 44 -c 2 -a 0 -i 22 -k MAC
+ -t 25.303117935 -s 4 -d -1 -p message -e 86 -c 2 -a 0 -i 24 -k MAC 
- -t 25.303117935 -s 4 -d -1 -p message -e 86 -c 2 -a 0 -i 24 -k MAC
h -t 25.303117935 -s 4 -d -1 -p message -e 86 -c 2 -a 0 -i 24 -k MAC
r -t 25.303806130 -s 2 -d -1 -p message -e 32 -c 2 -a 0 -i 24 -k MAC
r -t 25.303806389 -s 0 -d -1 -p message -e 32 -c 2 -a 0 -i 24 -k MAC
+ -t 28.633258860 -s 3 -d -1 -p message -e 98 -c 2 -a 0 -i 26 -k MAC 
- -t 28.633258860 -s 3 -d -1 -p message -e 98 -c 2 -a 0 -i 26 -k MAC
h -t 28.633258860 -s 3 -d -1 -p message -e 98 -c 2 -a 0 -i 26 -k MAC
r -t 28.634043489 -s 1 -d -1 -p message -e 44 -c 2 -a 0 -i 26 -k MAC
+ -t 36.111937871 -s 4 -d -1 -p message -e 110 -c 2 -a 0 -i 27 -k MAC 
- -t 36.111937871 -s 4 -d -1 -p message -e 110 -c 2 -a 0 -i 27 -k MAC
h -t 36.111937871 -s 4 -d -1 -p message -e 110 -c 2 -a 0 -i 27 -k MAC
r -t 36.112818065 -s 2 -d -1 -p message -e 56 -c 2 -a 0 -i 27 -k MAC
r -t 36.112818325 -s 0 -d -1 -p message -e 56 -c 2 -a 0 -i 27 -k MAC
+ -t 36.114742311 -s 1 -d -1 -p message -e 110 -c 2 -a 0 -i 28 -k MAC 
- -t 36.114742311 -s 1 -d -1 -p message -e 110 -c 2 -a 0 -i 28 -k MAC
h -t 36.114742311 -s 1 -d -1 -p message -e 110 -c 2 -a 0 -i 28 -k MAC
r -t 36.115622901 -s 0 -d -1 -p message -e 56 -c 2 -a 0 -i 28 -k MAC
r -t 36.115622940 -s 3 -d -1 -p message -e 56 -c 2 -a 0 -i 28 -k MAC
r -t 36.115623055 -s 2 -d -1 -p message -e 56 -c 2 -a 0 -i 28 -k MAC
+ -t 37.205366755 -s 2 -d -1 -p message -e 134 -c 2 -a 0 -i 29 -k MAC 
- -t 37.205366755 -s 2 -d -1 -p message -e 134 -c 2 -a 0 -i 29 -k MAC
h -t 37.205366755 -s 2 -d -1 -p message -e 134 -c 2 -a 0 -i 29 -k MAC
r -t 37.206438949 -s 4 -d -1 -p message -e 80 -c 2 -a 0 -i 29 -k MAC
r -t 37.206439038 -s 0 -d -1 -p message -e 80 -c 2 -a 0 -i 29 -k MAC
r -t 37.206439499 -s 1 -d -1 -p message -e 80 -c 2 -a 0 -i 29 -k MAC
+ -t 38.387444651 -s 0 -d -1 -p message -e 122 -c 2 -a 0 -i 30 -k MAC 
- -t 38.387444651 -s 0 -d -1 -p message -e 122 -c 2 -a 0 -i 30 -k MAC
h -t 38.387444651 -s 0 -d -1 -p message -e 122 -c 2 -a 0 -i 30 -k MAC
r -t 38.388420934 -s 2 -d -1 -p message -e 68 -c 2 -a 0 -i 30 -k MAC
r -t 38.388421105 -s 4 -d -1 -p message -e 68 -c 2 -a 0 -i 30 -k MAC
r -t 38.388421240 -s 1 -d -1 -p message -e 68 -c 2 -a 0 -i 30 -k MAC
+ -t 39.315211369 -s 4 -d -1 -p message -e 86 -c 2 -a 0 -i 31 -k MAC 
- -t 39.315211369 -s 4 -d -1 -p message -e 86 -c 2 -a 0 -i 31 -k MAC
h -t 39.315211369 -s 4 -d -1 -p message -e 86 -c 2 -a 0 -i 31 -k MAC
r -t 39.315899564 -s 2 -d -1 -p message -e 32 -c 2 -a 0 -i 31 -k MAC
r -t 39.315899824 -s 0 -d -1 -p message -e 32 -c 2 -a 0 -i 31 -k MAC
+ -t 39.319164837 -s 1 -d -1 -p message -e 98 -c 2 -a 0 -i 32 -k MAC 
- -t 39.319164837 -s 1 -d -1 -p message -e 98 -c 2 -a 0 -i 32 -k MAC
h -t 39.319164837 -s 1 -d -1 -p message -e 98 -c 2 -a 0 -i 32 -k MAC
r -t 39.319949427 -s 0 -d -1 -p message -e 44 -c 2 -a 0 -i 32 -k MAC
r -t 39.319949466 -s 3 -d -1 -p message -e 44 -c 2 -a 0 -i 32 -k MAC
r -t 39.319949581 -s 2 -d -1 -p message -e 44 -c 2 -a 0 -i 32 -k MAC
+ -t 42.940776021 -s 3 -d -1 -p message -e 86 -c 2 -a 0 -i 33 -k MAC 
- -t 42.940776021 -s 3 -d -1 -p message -e 86 -c 2 -a 0 -i 33 -k MAC
h -t 42.940776021 -s 3 -d -1 -p message -e 86 -c 2 -a 0 -i 33 -k MAC
r -t 42.941464650 -s 1 -d -1 -p message -e 32 -c 2 -a 0 -i 33 -k MAC
+ -t 48.120515162 -s 3 -d -1 -p message -e 134 -c 2 -a 0 -i 34 -k MAC 
- -t 48.120515162 -s 3 -d -1 -p message -e 134 -c 2 -a 0 -i 34 -k MAC
h -t 48.120515162 -s 3 -d -1 -p message -e 134 -c 2 -a 0 -i 34 -k MAC
r -t 48.121587791 -s 1 -d -1 -p message -e 80 -c 2 -a 0 -i 34 -k MAC
+ -t 49.208940470 -s 4 -d -1 -p message -e 134 -c 2 -a 0 -i 36 -k MAC 
- -t 49.208940470 -s 4 -d -1 -p message -e 134 -c 2 -a 0 -i 36 -k MAC
h -t 49.208940470 -s 4 -d -1 -p message -e 134 -c 2 -a 0 -i 36 -k MAC
r -t 49.210012664 -s 2 -d -1 -p message -e 80 -c 2 -a 0 -i 36 -k MAC
r -t 49.210012924 -s 0 -d -1 -p message -e 80 -c 2 -a 0 -i 36 -k MAC
+ -t 50.781795617 -s 0 -d -1 -p message -e 122 -c 2 -a 0 -i 37 -k MAC 
- -t 50.781795617 -s 0 -d -1 -p message -e 122 -c 2 -a 0 -i 37 -k MAC
h -t 50.781795617 -s 0 -d -1 -p message -e 122 -c 2 -a 0 -i 37 -k MAC
r -t 50.782771900 -s 2 -d -1 -p message -e 68 -c 2 -a 0 -i 37 -k MAC
r -t 50.782772071 -s 4 -d -1 -p message -e 68 -c 2 -a 0 -i 37 -k MAC
r -t 50.782772207 -s 1 -d -1 -p message -e 68 -c 2 -a 0 -i 37 -k MAC
+ -t 51.066850280 -s 2 -d -1 -p message -e 110 -c 2 -a 0 -i 38 -k MAC 
- -t 51.066850280 -s 2 -d -1 -p message -e 110 -c 2 -a 0 -i 38 -k MAC
h -t 51.066850280 -s 2 -d -1 -p message -e 110 -c 2 -a 0 -i 38 -k MAC
r -t 51.067730475 -s 4 -d -1 -p message -e 56 -c 2 -a 0 -i 38 -k MAC
r -t 51.067730563 -s 0 -d -1 -p message -e 56 -c 2 -a 0 -i 38 -k MAC
r -t 51.067731024 -s 1 -d -1 -p message -e 56 -c 2 -a 0 -i 38 -k MAC
+ -t 53.401703313 -s 1 -d -1 -p message -e 98 -c 2 -a 0 -i 39 -k MAC 
- -t 53.401703313 -s 1 -d -1 -p message -e 98 -c 2 -a 0 -i 39 -k MAC
h -t 53.401703313 -s 1 -d -1 -p message -e 98 -c 2 -a 0 -i 39 -k MAC
r -t 53.402487903 -s 0 -d -1 -p message -e 44 -c 2 -a 0 -i 39 -k MAC
r -t 53.402487942 -s 3 -d -1 -p message -e 44 -c 2 -a 0 -i 39 -k MAC
r -t 53.402488057 -s 2 -d -1 -p message -e 44 -c 2 -a 0 -i 39 -k MAC
+ -t 61.021726985 -s 3 -d -1 -p message -e 122 -c 2 -a 0 -i 40 -k MAC 
- -t 61.021726985 -s 3 -d -1 -p message -e 122 -c 2 -a 0 -i 40 -k MAC
h -t 61.021726985 -s 3 -d -1 -p message -e 122 -c 2 -a 0 -i 40 -k MAC
r -t 61.022703614 -s 1 -d -1 -p message -e 68 -c 2 -a 0 -i 40 -k MAC
+ -t 63.830150807 -s 4 -d -1 -p message -e 134 -c 2 -a 0 -i 41 -k MAC 
- -t 63.830150807 -s 4 -d -1 -p message -e 134 -c 2 -a 0 -i 41 -k MAC
h -t 63.830150807 -s 4 -d -1 -p message -e 134 -c 2 -a 0 -i 41 -k MAC
r -t 63.831223002 -s 2 -d -1 -p message -e 80 -c 2 -a 0 -i 41 -k MAC
r -t 63.831223262 -s 0 -d -1 -p message -e 80 -c 2 -a 0 -i 41 -k MAC
+ -t 64.790835648 -s 0 -d -1 -p message -e 122 -c 2 -a 0 -i 42 -k MAC 
- -t 64.790835648 -s 0 -d -1 -p message -e 122 -c 2 -a 0 -i 42 -k MAC
h -t 64.790835648 -s 0 -d -1 -p message -e 122 -c 2 -a 0 -i 42 -k MAC
r -t 64.791811931 -s 2 -d -1 -p message -e 68 -c 2 -a 0 -i 42 -k MAC
r -t 64.791812102 -s 4 -d -1 -p message -e 68 -c 2 -a 0 -i 42 -k MAC
r -t 64.791812237 -s 1 -d -1 -p message -e 68 -c 2 -a 0 -i 42 -k MAC
+ -t 65.318366237 -s 1 -d -1 -p message -e 110 -c 2 -a 0 -i 43 -k MAC 
- -t 65.318366237 -s 1 -d -1 -p message -e 110 -c 2 -a 0 -i 43 -k MAC
h -t 65.318366237 -s 1 -d -1 -p message -e 110 -c 2 -a 0 -i 43 -k MAC
r -t 65.319246827 -s 0 -d -1 -p message -e 56 -c 2 -a 0 -i 43 -k MAC
r -t 65.319246866 -s 3 -d -1 -p message -e 56 -c 2 -a 0 -i 43 -k MAC
r -t 65.319246981 -s 2 -d -1 -p message -e 56 -c 2 -a 0 -i 43 -k MAC
+ -t 65.502514817 -s 2 -d -1 -p message -e 98 -c 2 -a 0 -i 44 -k MAC 
- -t 65.502514817 -s 2 -d -1 -p message -e 98 -c 2 -a 0 -i 44 -k MAC
h -t 65.502514817 -s 2 -d -1 -p message -e 98 -c 2 -a 0 -i 44 -k MAC
r -t 65.503299012 -s 4 -d -1 -p message -e 44 -c 2 -a 0 -i 44 -k MAC
r -t 65.503299101 -s 0 -d -1 -p message -e 44 -c 2 -a 0 -i 44 -k MAC
r -t 65.503299562 -s 1 -d -1 -p message -e 44 -c 2 -a 0 -i 44 -k MAC
+ -t 74.914947466 -s 3 -d -1 -p message -e 122 -c 2 -a 0 -i 45 -k MAC 
- -t 74.914947466 -s 3 -d -1 -p message -e 122 -c 2 -a 0 -i 45 -k MAC
h -t 74.914947466 -s 3 -d -1 -p message -e 122 -c 2 -a 0 -i 45 -k MAC
r -t 74.915924095 -s 1 -d -1 -p message -e 68 -c 2 -a 0 -i 45 -k MAC
+ -t 76.361536760 -s 4 -d -1 -p message -e 134 -c 2 -a 0 -i 46 -k MAC 
- -t 76.361536760 -s 4 -d -1 -p message -e 134 -c 2 -a 0 -i 46 -k MAC
h -t 76.361536760 -s 4 -d -1 -p message -e 134 -c 2 -a 0 -i 46 -k MAC
r -t 76.362608955 -s 2 -d -1 -p message -e 80 -c 2 -a 0 -i 46 -k MAC
r -t 76.362609214 -s 0 -d -1 -p message -e 80 -c 2 -a 0 -i 46 -k MAC
+ -t 76.896783642 -s 0 -d -1 -p message -e 122 -c 2 -a 0 -i 47 -k MAC 
- -t 76.896783642 -s 0 -d -1 -p message -e 122 -c 2 -a 0 -i 47 -k MAC
h -t 76.896783642 -s 0 -d -1 -p message -e 122 -c 2 -a 0 -i 47 -k MAC
r -t 76.897759926 -s 2 -d -1 -p message -e 68 -c 2 -a 0 -i 47 -k MAC
r -t 76.897760097 -s 4 -d -1 -p message -e 68 -c 2 -a 0 -i 47 -k MAC
r -t 76.897760232 -s 1 -d -1 -p message -e 68 -c 2 -a 0 -i 47 -k MAC
+ -t 79.946747027 -s 1 -d -1 -p message -e 110 -c 2 -a 0 -i 48 -k MAC 
- -t 79.946747027 -s 1 -d -1 -p message -e 110 -c 2 -a 0 -i 48 -k MAC
h -t 79.946747027 -s 1 -d -1 -p message -e 110 -c 2 -a 0 -i 48 -k MAC
r -t 79.947627616 -s 0 -d -1 -p message -e 56 -c 2 -a 0 -i 48 -k MAC
r -t 79.947627656 -s 3 -d -1 -p message -e 56 -c 2 -a 0 -i 48 -k MAC
r -t 79.947627771 -s 2 -d -1 -p message -e 56 -c 2 -a 0 -i 48 -k MAC
+ -t 80.303762705 -s 2 -d -1 -p message -e 98 -c 2 -a 0 -i 49 -k MAC 
- -t 80.303762705 -s 2 -d -1 -p message -e 98 -c 2 -a 0 -i 49 -k MAC
h -t 80.303762705 -s 2 -d -1 -p message -e 98 -c 2 -a 0 -i 49 -k MAC
r -t 80.304546900 -s 4 -d -1 -p message -e 44 -c 2 -a 0 -i 49 -k MAC
r -t 80.304546989 -s 0 -d -1 -p message -e 44 -c 2 -a 0 -i 49 -k MAC
r -t 80.304547450 -s 1 -d -1 -p message -e 44 -c 2 -a 0 -i 49 -k MAC
+ -t 82.557023746 -s 2 -d -1 -p cbr -e 512 -c 2 -a 0 -i 50 -k AGT 
- -t 82.557023746 -s 2 -d -1 -p cbr -e 512 -c 2 -a 0 -i 50 -k AGT
h -t 82.557023746 -s 2 -d -1 -p cbr -e 512 -c 2 -a 0 -i 50 -k AGT
+ -t 82.557078746 -s 2 -d -1 -p ARP -e 82 -c 2 -a 0 -i 0 -k MAC 
- -t 82.557078746 -s 2 -d -1 -p ARP -e 82 -c 2 -a 0 -i 0 -k MAC
h -t 82.557078746 -s 2 -d -1 -p ARP -e 82 -c 2 -a 0 -i 0 -k MAC
r -t 82.557734941 -s 4 -d -1 -p ARP -e 28 -c 2 -a 0 -i 0 -k MAC
r -t 82.557735030 -s 0 -d -1 -p ARP -e 28 -c 2 -a 0 -i 0 -k MAC
r -t 82.557735491 -s 1 -d -1 -p ARP -e 28 -c 2 -a 0 -i 0 -k MAC
+ -t 82.558110491 -s 1 -d -1 -p RTS -e 46 -c 2 -a 0 -i 0 -k MAC 
- -t 82.558110491 -s 1 -d -1 -p RTS -e 46 -c 2 -a 0 -i 0 -k MAC
h -t 82.558110491 -s 1 -d -1 -p RTS -e 46 -c 2 -a 0 -i 0 -k MAC
r -t 82.558479235 -s 2 -d -1 -p RTS -e 46 -c 2 -a 0 -i 0 -k MAC
+ -t 82.558489235 -s 2 -d -1 -p CTS -e 40 -c 2 -a 0 -i 0 -k MAC 
- -t 82.558489235 -s 2 -d -1 -p CTS -e 40 -c 2 -a 0 -i 0 -k MAC
h -t 82.558489235 -s 2 -d -1 -p CTS -e 40 -c 2 -a 0 -i 0 -k MAC
r -t 82.558809979 -s 1 -d -1 -p CTS -e 40 -c 2 -a 0 -i 0 -k MAC
+ -t 82.558819979 -s 1 -d -1 -p ARP -e 82 -c 2 -a 0 -i 0 -k MAC 
- -t 82.558819979 -s 1 -d -1 -p ARP -e 82 -c 2 -a 0 -i 0 -k MAC
h -t 82.558819979 -s 1 -d -1 -p ARP -e 82 -c 2 -a 0 -i 0 -k MAC
r -t 82.559476724 -s 2 -d -1 -p ARP -e 28 -c 2 -a 0 -i 0 -k MAC
+ -t 82.559486724 -s 2 -d -1 -p ACK -e 40 -c 2 -a 0 -i 0 -k MAC 
- -t 82.559486724 -s 2 -d -1 -p ACK -e 40 -c 2 -a 0 -i 0 -k MAC
h -t 82.559486724 -s 2 -d -1 -p ACK -e 40 -c 2 -a 0 -i 0 -k MAC
r -t 82.559807468 -s 1 -d -1 -p ACK -e 40 -c 2 -a 0 -i 0 -k MAC
+ -t 82.560096724 -s 2 -d -1 -p RTS -e 46 -c 2 -a 0 -i 0 -k MAC 
- -t 82.560096724 -s 2 -d -1 -p RTS -e 46 -c 2 -a 0 -i 0 -k MAC
h -t 82.560096724 -s 2 -d -1 -p RTS -e 46 -c 2 -a 0 -i 0 -k MAC
r -t 82.560465468 -s 1 -d -1 -p RTS -e 46 -c 2 -a 0 -i 0 -k MAC
+ -t 82.560475468 -s 1 -d -1 -p CTS -e 40 -c 2 -a 0 -i 0 -k MAC 
- -t 82.560475468 -s 1 -d -1 -p CTS -e 40 -c 2 -a 0 -i 0 -k MAC
h -t 82.560475468 -s 1 -d -1 -p CTS -e 40 -c 2 -a 0 -i 0 -k MAC
r -t 82.560796212 -s 2 -d -1 -p CTS -e 40 -c 2 -a 0 -i 0 -k MAC
+ -t 82.560806212 -s 2 -d 1 -p cbr -e 586 -c 2 -a 0 -i 50 -k MAC 
- -t 82.560806212 -s 2 -d 1 -p cbr -e 586 -c 2 -a 0 -i 50 -k MAC
h -t 82.560806212 -s 2 -d 1 -p cbr -e 586 -c 2 -a 0 -i 50 -k MAC
r -t 82.565494957 -s 1 -d 1 -p cbr -e 532 -c 2 -a 0 -i 50 -k MAC
+ -t 82.565504957 -s 1 -d -1 -p ACK -e 40 -c 2 -a 0 -i 0 -k MAC 
- -t 82.565504957 -s 1 -d -1 -p ACK -e 40 -c 2 -a 0 -i 0 -k MAC
h -t 82.565504957 -s 1 -d -1 -p ACK -e 40 -c 2 -a 0 -i 0 -k MAC
r -t 82.565825701 -s 2 -d -1 -p ACK -e 40 -c 2 -a 0 -i 0 -k MAC
+ -t 82.566014957 -s 1 -d -1 -p ARP -e 82 -c 2 -a 0 -i 0 -k MAC 
- -t 82.566014957 -s 1 -d -1 -p ARP -e 82 -c 2 -a 0 -i 0 -k MAC
h -t 82.566014957 -s 1 -d -1 -p ARP -e 82 -c 2 -a 0 -i 0 -k MAC
r -t 82.566671546 -s 0 -d -1 -p ARP -e 28 -c 2 -a 0 -i 0 -k MAC
r -t 82.566671586 -s 3 -d -1 -p ARP -e 28 -c 2 -a 0 -i 0 -k MAC
r -t 82.566671701 -s 2 -d -1 -p ARP -e 28 -c 2 -a 0 -i 0 -k MAC
+ -t 82.567126586 -s 3 -d -1 -p RTS -e 46 -c 2 -a 0 -i 0 -k MAC 
- -t 82.567126586 -s 3 -d -1 -p RTS -e 46 -c 2 -a 0 -i 0 -k MAC
h -t 82.567126586 -s 3 -d -1 -p RTS -e 46 -c 2 -a 0 -i 0 -k MAC
r -t 82.567495215 -s 1 -d -1 -p RTS -e 46 -c 2 -a 0 -i 0 -k MAC
+ -t 82.567505215 -s 1 -d -1 -p CTS -e 40 -c 2 -a 0 -i 0 -k MAC 
- -t 82.567505215 -s 1 -d -1 -p CTS -e 40 -c 2 -a 0 -i 0 -k MAC
h -t 82.567505215 -s 1 -d -1 -p CTS -e 40 -c 2 -a 0 -i 0 -k MAC
r -t 82.567825844 -s 3 -d -1 -p CTS -e 40 -c 2 -a 0 -i 0 -k MAC
+ -t 82.567835844 -s 3 -d -1 -p ARP -e 82 -c 2 -a 0 -i 0 -k MAC 
- -t 82.567835844 -s 3 -d -1 -p ARP -e 82 -c 2 -a 0 -i 0 -k MAC
h -t 82.567835844 -s 3 -d -1 -p ARP -e 82 -c 2 -a 0 -i 0 -k MAC
r -t 82.568492473 -s 1 -d -1 -p ARP -e 28 -c 2 -a 0 -i 0 -k MAC
+ -t 82.568502473 -s 1 -d -1 -p ACK -e 40 -c 2 -a 0 -i 0 -k MAC 
- -t 82.568502473 -s 1 -d -1 -p ACK -e 40 -c 2 -a 0 -i 0 -k MAC
h -t 82.568502473 -s 1 -d -1 -p ACK -e 40 -c 2 -a 0 -i 0 -k MAC
r -t 82.568823102 -s 3 -d -1 -p ACK -e 40 -c 2 -a 0 -i 0 -k MAC
+ -t 82.568992473 -s 1 -d -1 -p RTS -e 46 -c 2 -a 0 -i 0 -k MAC 
- -t 82.568992473 -s 1 -d -1 -p RTS -e 46 -c 2 -a 0 -i 0 -k MAC
h -t 82.568992473 -s 1 -d -1 -p RTS -e 46 -c 2 -a 0 -i 0 -k MAC
r -t 82.569361102 -s 3 -d -1 -p RTS -e 46 -c 2 -a 0 -i 0 -k MAC
+ -t 82.569371102 -s 3 -d -1 -p CTS -e 40 -c 2 -a 0 -i 0 -k MAC 
- -t 82.569371102 -s 3 -d -1 -p CTS -e 40 -c 2 -a 0 -i 0 -k MAC
h -t 82.569371102 -s 3 -d -1 -p CTS -e 40 -c 2 -a 0 -i 0 -k MAC
r -t 82.569691731 -s 1 -d -1 -p CTS -e 40 -c 2 -a 0 -i 0 -k MAC
+ -t 82.569701731 -s 1 -d 3 -p cbr -e 586 -c 2 -a 0 -i 50 -k MAC 
- -t 82.569701731 -s 1 -d 3 -p cbr -e 586 -c 2 -a 0 -i 50 -k MAC
h -t 82.569701731 -s 1 -d 3 -p cbr -e 586 -c 2 -a 0 -i 50 -k MAC
r -t 82.574390360 -s 3 -d 3 -p cbr -e 532 -c 2 -a 0 -i 50 -k MAC
+ -t 82.574400360 -s 3 -d -1 -p ACK -e 40 -c 2 -a 0 -i 0 -k MAC 
- -t 82.574400360 -s 3 -d -1 -p ACK -e 40 -c 2 -a 0 -i 0 -k MAC
h -t 82.574400360 -s 3 -d -1 -p ACK -e 40 -c 2 -a 0 -i 0 -k MAC
r -t 82.574415360 -s 3 -d 3 -p cbr -e 532 -c 2 -a 0 -i 50 -k AGT
r -t 82.574720989 -s 1 -d -1 -p ACK -e 40 -c 2 -a 0 -i 0 -k MAC
+ -t 83.640169743 -s 2 -d -1 -p cbr -e 512 -c 2 -a 0 -i 51 -k AGT 
- -t 83.640169743 -s 2 -d -1 -p cbr -e 512 -c 2 -a 0 -i 51 -k AGT
h -t 83.640169743 -s 2 -d -1 -p cbr -e 512 -c 2 -a 0 -i 51 -k AGT
+ -t 83.640324743 -s 2 -d -1 -p RTS -e 46 -c 2 -a 0 -i 0 -k MAC 
- -t 83.640324743 -s 2 -d -1 -p RTS -e 46 -c 2 -a 0 -i 0 -k MAC
h -t 83.640324743 -s 2 -d -1 -p RTS -e 46 -c 2 -a 0 -i 0 -k MAC
r -t 83.640693487 -s 1 -d -1 -p RTS -e 46 -c 2 -a 0 -i 0 -k MAC
+ -t 83.640703487 -s 1 -d -1 -p CTS -e 40 -c 2 -a 0 -i 0 -k MAC 
- -t 83.640703487 -s 1 -d -1 -p CTS -e 40 -c 2 -a 0 -i 0 -k MAC
h -t 83.640703487 -s 1 -d -1 -p CTS -e 40 -c 2 -a 0 -i 0 -k MAC
r -t 83.641024231 -s 2 -d -1 -p CTS -e 40 -c 2 -a 0 -i 0 -k MAC
+ -t 83.641034231 -s 2 -d 1 -p cbr -e 586 -c 2 -a 0 -i 51 -k MAC 
- -t 83.641034231 -s 2 -d 1 -p cbr -e 586 -c 2 -a 0 -i 51 -k MAC
h -t 83.641034231 -s 2 -d 1 -p cbr -e 586 -c 2 -a 0 -i 51 -k MAC
r -t 83.645722976 -s 1 -d 1 -p cbr -e 532 -c 2 -a 0 -i 51 -k MAC
+ -t 83.645732976 -s 1 -d -1 -p ACK -e 40 -c 2 -a 0 -i 0 -k MAC 
- -t 83.645732976 -s 1 -d -1 -p ACK -e 40 -c 2 -a 0 -i 0 -k MAC
h -t 83.645732976 -s 1 -d -1 -p ACK -e 40 -c 2 -a 0 -i 0 -k MAC
r -t 83.646053720 -s 2 -d -1 -p ACK -e 40 -c 2 -a 0 -i 0 -k MAC
+ -t 83.646662976 -s 1 -d -1 -p RTS -e 46 -c 2 -a 0 -i 0 -k MAC 
- -t 83.646662976 -s 1 -d -1 -p RTS -e 46 -c 2 -a 0 -i 0 -k MAC
h -t 83.646662976 -s 1 -d -1 -p RTS -e 46 -c 2 -a 0 -i 0 -k MAC
r -t 83.647031605 -s 3 -d -1 -p RTS -e 46 -c 2 -a 0 -i 0 -k MAC
+ -t 83.647041605 -s 3 -d -1 -p CTS -e 40 -c 2 -a 0 -i 0 -k MAC 
- -t 83.647041605 -s 3 -d -1 -p CTS -e 40 -c 2 -a 0 -i 0 -k MAC
h -t 83.647041605 -s 3 -d -1 -p CTS -e 40 -c 2 -a 0 -i 0 -k MAC
r -t 83.647362234 -s 1 -d -1 -p CTS -e 40 -c 2 -a 0 -i 0 -k MAC
+ -t 83.647372234 -s 1 -d 3 -p cbr -e 586 -c 2 -a 0 -i 51 -k MAC 
- -t 83.647372234 -s 1 -d 3 -p cbr -e 586 -c 2 -a 0 -i 51 -k MAC
h -t 83.647372234 -s 1 -d 3 -p cbr -e 586 -c 2 -a 0 -i 51 -k MAC
r -t 83.652060863 -s 3 -d 3 -p cbr -e 532 -c 2 -a 0 -i 51 -k MAC
+ -t 83.652070863 -s 3 -d -1 -p ACK -e 40 -c 2 -a 0 -i 0 -k MAC 
- -t 83.652070863 -s 3 -d -1 -p ACK -e 40 -c 2 -a 0 -i 0 -k MAC
h -t 83.652070863 -s 3 -d -1 -p ACK -e 40 -c 2 -a 0 -i 0 -k MAC
r -t 83.652085863 -s 3 -d 3 -p cbr -e 532 -c 2 -a 0 -i 51 -k AGT
r -t 83.652391492 -s 1 -d -1 -p ACK -e 40 -c 2 -a 0 -i 0 -k MAC
+ -t 86.300260547 -s 2 -d -1 -p cbr -e 512 -c 2 -a 0 -i 52 -k AGT 
- -t 86.300260547 -s 2 -d -1 -p cbr -e 512 -c 2 -a 0 -i 52 -k AGT
h -t 86.300260547 -s 2 -d -1 -p cbr -e 512 -c 2 -a 0 -i 52 -k AGT
+ -t 86.300695547 -s 2 -d -1 -p RTS -e 46 -c 2 -a 0 -i 0 -k MAC 
- -t 86.300695547 -s 2 -d -1 -p RTS -e 46 -c 2 -a 0 -i 0 -k MAC
h -t 86.300695547 -s 2 -d -1 -p RTS -e 46 -c 2 -a 0 -i 0 -k MAC
r -t 86.301064292 -s 1 -d -1 -p RTS -e 46 -c 2 -a 0 -i 0 -k MAC
+ -t 86.301074292 -s 1 -d -1 -p CTS -e 40 -c 2 -a 0 -i 0 -k MAC 
- -t 86.301074292 -s 1 -d -1 -p CTS -e 40 -c 2 -a 0 -i 0 -k MAC
h -t 86.301074292 -s 1 -d -1 -p CTS -e 40 -c 2 -a 0 -i 0 -k MAC
r -t 86.301395036 -s 2 -d -1 -p CTS -e 40 -c 2 -a 0 -i 0 -k MAC
+ -t 86.301405036 -s 2 -d 1 -p cbr -e 586 -c 2 -a 0 -i 52 -k MAC 
- -t 86.301405036 -s 2 -d 1 -p cbr -e 586 -c 2 -a 0 -i 52 -k MAC
h -t 86.301405036 -s 2 -d 1 -p cbr -e 586 -c 2 -a 0 -i 52 -k MAC
r -t 86.306093780 -s 1 -d 1 -p cbr -e 532 -c 2 -a 0 -i 52 -k MAC
+ -t 86.306103780 -s 1 -d -1 -p ACK -e 40 -c 2 -a 0 -i 0 -k MAC 
- -t 86.306103780 -s 1 -d -1 -p ACK -e 40 -c 2 -a 0 -i 0 -k MAC
h -t 86.306103780 -s 1 -d -1 -p ACK -e 40 -c 2 -a 0 -i 0 -k MAC
r -t 86.306424525 -s 2 -d -1 -p ACK -e 40 -c 2 -a 0 -i 0 -k MAC
+ -t 86.306573780 -s 1 -d -1 -p RTS -e 46 -c 2 -a 0 -i 0 -k MAC 
- -t 86.306573780 -s 1 -d -1 -p RTS -e 46 -c 2 -a 0 -i 0 -k MAC
h -t 86.306573780 -s 1 -d -1 -p RTS -e 46 -c 2 -a 0 -i 0 -k MAC
r -t 86.306942410 -s 3 -d -1 -p RTS -e 46 -c 2 -a 0 -i 0 -k MAC
+ -t 86.306952410 -s 3 -d -1 -p CTS -e 40 -c 2 -a 0 -i 0 -k MAC 
- -t 86.306952410 -s 3 -d -1 -p CTS -e 40 -c 2 -a 0 -i 0 -k MAC
h -t 86.306952410 -s 3 -d -1 -p CTS -e 40 -c 2 -a 0 -i 0 -k MAC
r -t 86.307273039 -s 1 -d -1 -p CTS -e 40 -c 2 -a 0 -i 0 -k MAC
+ -t 86.307283039 -s 1 -d 3 -p cbr -e 586 -c 2 -a 0 -i 52 -k MAC 
- -t 86.307283039 -s 1 -d 3 -p cbr -e 586 -c 2 -a 0 -i 52 -k MAC
h -t 86.307283039 -s 1 -d 3 -p cbr -e 586 -c 2 -a 0 -i 52 -k MAC
r -t 86.311971668 -s 3 -d 3 -p cbr -e 532 -c 2 -a 0 -i 52 -k MAC
+ -t 86.311981668 -s 3 -d -1 -p ACK -e 40 -c 2 -a 0 -i 0 -k MAC 
- -t 86.311981668 -s 3 -d -1 -p ACK -e 40 -c 2 -a 0 -i 0 -k MAC
h -t 86.311981668 -s 3 -d -1 -p ACK -e 40 -c 2 -a 0 -i 0 -k MAC
r -t 86.311996668 -s 3 -d 3 -p cbr -e 532 -c 2 -a 0 -i 52 -k AGT
r -t 86.312302297 -s 1 -d -1 -p ACK -e 40 -c 2 -a 0 -i 0 -k MAC
+ -t 88.134319315 -s 2 -d -1 -p cbr -e 512 -c 2 -a 0 -i 53 -k AGT 
- -t 88.134319315 -s 2 -d -1 -p cbr -e 512 -c 2 -a 0 -i 53 -k AGT
h -t 88.134319315 -s 2 -d -1 -p cbr -e 512 -c 2 -a 0 -i 53 -k AGT
+ -t 88.134494315 -s 2 -d -1 -p RTS -e 46 -c 2 -a 0 -i 0 -k MAC 
- -t 88.134494315 -s 2 -d -1 -p RTS -e 46 -c 2 -a 0 -i 0 -k MAC
h -t 88.134494315 -s 2 -d -1 -p RTS -e 46 -c 2 -a 0 -i 0 -k MAC
r -t 88.134863059 -s 1 -d -1 -p RTS -e 46 -c 2 -a 0 -i 0 -k MAC
+ -t 88.134873059 -s 1 -d -1 -p CTS -e 40 -c 2 -a 0 -i 0 -k MAC 
- -t 88.134873059 -s 1 -d -1 -p CTS -e 40 -c 2 -a 0 -i 0 -k MAC
h -t 88.134873059 -s 1 -d -1 -p CTS -e 40 -c 2 -a 0 -i 0 -k MAC
r -t 88.135193804 -s 2 -d -1 -p CTS -e 40 -c 2 -a 0 -i 0 -k MAC
+ -t 88.135203804 -s 2 -d 1 -p cbr -e 586 -c 2 -a 0 -i 53 -k MAC 
- -t 88.135203804 -s 2 -d 1 -p cbr -e 586 -c 2 -a 0 -i 53 -k MAC
h -t 88.135203804 -s 2 -d 1 -p cbr -e 586 -c 2 -a 0 -i 53 -k MAC
r -t 88.139892548 -s 1 -d 1 -p cbr -e 532 -c 2 -a 0 -i 53 -k MAC
+ -t 88.139902548 -s 1 -d -1 -p ACK -e 40 -c 2 -a 0 -i 0 -k MAC 
- -t 88.139902548 -s 1 -d -1 -p ACK -e 40 -c 2 -a 0 -i 0 -k MAC
h -t 88.139902548 -s 1 -d -1 -p ACK -e 40 -c 2 -a 0 -i 0 -k MAC
r -t 88.140223292 -s 2 -d -1 -p ACK -e 40 -c 2 -a 0 -i 0 -k MAC
+ -t 88.140732548 -s 1 -d -1 -p RTS -e 46 -c 2 -a 0 -i 0 -k MAC 
- -t 88.140732548 -s 1 -d -1 -p RTS -e 46 -c 2 -a 0 -i 0 -k MAC
h -t 88.140732548 -s 1 -d -1 -p RTS -e 46 -c 2 -a 0 -i 0 -k MAC
r -t 88.141101177 -s 3 -d -1 -p RTS -e 46 -c 2 -a 0 -i 0 -k MAC
+ -t 88.141111177 -s 3 -d -1 -p CTS -e 40 -c 2 -a 0 -i 0 -k MAC 
- -t 88.141111177 -s 3 -d -1 -p CTS -e 40 -c 2 -a 0 -i 0 -k MAC
h -t 88.141111177 -s 3 -d -1 -p CTS -e 40 -c 2 -a 0 -i 0 -k MAC
r -t 88.141431806 -s 1 -d -1 -p CTS -e 40 -c 2 -a 0 -i 0 -k MAC
+ -t 88.141441806 -s 1 -d 3 -p cbr -e 586 -c 2 -a 0 -i 53 -k MAC 
- -t 88.141441806 -s 1 -d 3 -p cbr -e 586 -c 2 -a 0 -i 53 -k MAC
h -t 88.141441806 -s 1 -d 3 -p cbr -e 586 -c 2 -a 0 -i 53 -k MAC
r -t 88.146130435 -s 3 -d 3 -p cbr -e 532 -c 2 -a 0 -i 53 -k MAC
+ -t 88.146140435 -s 3 -d -1 -p ACK -e 40 -c 2 -a 0 -i 0 -k MAC 
- -t 88.146140435 -s 3 -d -1 -p ACK -e 40 -c 2 -a 0 -i 0 -k MAC
h -t 88.146140435 -s 3 -d -1 -p ACK -e 40 -c 2 -a 0 -i 0 -k MAC
r -t 88.146155435 -s 3 -d 3 -p cbr -e 532 -c 2 -a 0 -i 53 -k AGT
r -t 88.146461064 -s 1 -d -1 -p ACK -e 40 -c 2 -a 0 -i 0 -k MAC
+ -t 88.591558581 -s 4 -d -1 -p message -e 134 -c 2 -a 0 -i 54 -k MAC 
- -t 88.591558581 -s 4 -d -1 -p message -e 134 -c 2 -a 0 -i 54 -k MAC
h -t 88.591558581 -s 4 -d -1 -p message -e 134 -c 2 -a 0 -i 54 -k MAC
r -t 88.592630776 -s 2 -d -1 -p message -e 80 -c 2 -a 0 -i 54 -k MAC
r -t 88.592631036 -s 0 -d -1 -p message -e 80 -c 2 -a 0 -i 54 -k MAC
+ -t 89.812526304 -s 3 -d -1 -p message -e 134 -c 2 -a 0 -i 55 -k MAC 
- -t 89.812526304 -s 3 -d -1 -p message -e 134 -c 2 -a 0 -i 55 -k MAC
h -t 89.812526304 -s 3 -d -1 -p message -e 134 -c 2 -a 0 -i 55 -k MAC
r -t 89.813598933 -s 1 -d -1 -p message -e 80 -c 2 -a 0 -i 55 -k MAC
+ -t 90.684569711 -s 0 -d -1 -p message -e 122 -c 2 -a 0 -i 56 -k MAC 
- -t 90.684569711 -s 0 -d -1 -p message -e 122 -c 2 -a 0 -i 56 -k MAC
h -t 90.684569711 -s 0 -d -1 -p message -e 122 -c 2 -a 0 -i 56 -k MAC
r -t 90.685545994 -s 2 -d -1 -p message -e 68 -c 2 -a 0 -i 56 -k MAC