n -t * -s 0  -x 143.43750921878001 -y 94.217567273200004 -Z 0 -z 20  -v circle -c green
n -t * -s 1  -x 304.65324424678403 -y 167.07632596983501 -Z 0 -z 20  -v circle -c green
n -t * -s 2  -x 81.810723227699 -y 152.82536050561001 -Z 0 -z 20  -v circle -c green
n -t * -s 3  -x 325.834153339995 -y 354.615563074325 -Z 0 -z 20  -v circle -c green
n -t * -s 4  -x 23.768638624379001 -y 159.50938100993099 -Z 0 -z 20  -v circle -c green
V -t * -v 1.0a5 -a 0
W -t * -x 670 -y 670
A -t * -n 1 -p 0 -o 0xffffffff -c 31 -a 1
A -t * -h 1 -m 2147483647 -s 0
+ -t 82.557023746 -s 2 -d -1 -p cbr -e 512 -c 2 -a 0 -i 0 -k AGT 
- -t 82.557023746 -s 2 -d -1 -p cbr -e 512 -c 2 -a 0 -i 0 -k AGT
h -t 82.557023746 -s 2 -d -1 -p cbr -e 512 -c 2 -a 0 -i 0 -k AGT
+ -t 82.563764707 -s 2 -d -1 -p DSR -e 84 -c 2 -a 0 -i 1 -k MAC 
- -t 82.563764707 -s 2 -d -1 -p DSR -e 84 -c 2 -a 0 -i 1 -k MAC
h -t 82.563764707 -s 2 -d -1 -p DSR -e 84 -c 2 -a 0 -i 1 -k MAC
r -t 82.564436902 -s 4 -d -1 -p DSR -e 32 -c 2 -a 0 -i 1 -k MAC
r -t 82.564436990 -s 0 -d -1 -p DSR -e 32 -c 2 -a 0 -i 1 -k MAC
r -t 82.564437451 -s 1 -d -1 -p DSR -e 32 -c 2 -a 0 -i 1 -k MAC
+ -t 82.629395469 -s 2 -d -1 -p DSR -e 84 -c 2 -a 0 -i 3 -k MAC 
- -t 82.629395469 -s 2 -d -1 -p DSR -e 84 -c 2 -a 0 -i 3 -k MAC
h -t 82.629395469 -s 2 -d -1 -p DSR -e 84 -c 2 -a 0 -i 3 -k MAC
r -t 82.630067664 -s 4 -d -1 -p DSR -e 32 -c 2 -a 0 -i 3 -k MAC
r -t 82.630067753 -s 0 -d -1 -p DSR -e 32 -c 2 -a 0 -i 3 -k MAC
r -t 82.630068213 -s 1 -d -1 -p DSR -e 32 -c 2 -a 0 -i 3 -k MAC
+ -t 82.631045567 -s 1 -d -1 -p DSR -e 100 -c 2 -a 0 -i 3 -k MAC 
- -t 82.631045567 -s 1 -d -1 -p DSR -e 100 -c 2 -a 0 -i 3 -k MAC
h -t 82.631045567 -s 1 -d -1 -p DSR -e 100 -c 2 -a 0 -i 3 -k MAC
r -t 82.631846156 -s 0 -d -1 -p DSR -e 48 -c 2 -a 0 -i 3 -k MAC
r -t 82.631846196 -s 3 -d -1 -p DSR -e 48 -c 2 -a 0 -i 3 -k MAC
r -t 82.631846311 -s 2 -d -1 -p DSR -e 48 -c 2 -a 0 -i 3 -k MAC
+ -t 82.632360503 -s 4 -d -1 -p DSR -e 100 -c 2 -a 0 -i 3 -k MAC 
- -t 82.632360503 -s 4 -d -1 -p DSR -e 100 -c 2 -a 0 -i 3 -k MAC
h -t 82.632360503 -s 4 -d -1 -p DSR -e 100 -c 2 -a 0 -i 3 -k MAC
r -t 82.633160698 -s 2 -d -1 -p DSR -e 48 -c 2 -a 0 -i 3 -k MAC
r -t 82.633160958 -s 0 -d -1 -p DSR -e 48 -c 2 -a 0 -i 3 -k MAC
+ -t 82.633270958 -s 0 -d -1 -p DSR -e 100 -c 2 -a 0 -i 3 -k MAC 
- -t 82.633270958 -s 0 -d -1 -p DSR -e 100 -c 2 -a 0 -i 3 -k MAC
h -t 82.633270958 -s 0 -d -1 -p DSR -e 100 -c 2 -a 0 -i 3 -k MAC
r -t 82.634071241 -s 2 -d -1 -p DSR -e 48 -c 2 -a 0 -i 3 -k MAC
r -t 82.634071412 -s 4 -d -1 -p DSR -e 48 -c 2 -a 0 -i 3 -k MAC
r -t 82.634071547 -s 1 -d -1 -p DSR -e 48 -c 2 -a 0 -i 3 -k MAC
+ -t 82.636000658 -s 3 -d -1 -p ARP -e 80 -c 2 -a 0 -i 0 -k MAC 
- -t 82.636000658 -s 3 -d -1 -p ARP -e 80 -c 2 -a 0 -i 0 -k MAC
h -t 82.636000658 -s 3 -d -1 -p ARP -e 80 -c 2 -a 0 -i 0 -k MAC
r -t 82.636641287 -s 1 -d -1 -p ARP -e 28 -c 2 -a 0 -i 0 -k MAC
+ -t 82.636816287 -s 1 -d -1 -p RTS -e 44 -c 2 -a 0 -i 0 -k MAC 
- -t 82.636816287 -s 1 -d -1 -p RTS -e 44 -c 2 -a 0 -i 0 -k MAC
h -t 82.636816287 -s 1 -d -1 -p RTS -e 44 -c 2 -a 0 -i 0 -k MAC
r -t 82.637168916 -s 3 -d -1 -p RTS -e 44 -c 2 -a 0 -i 0 -k MAC
+ -t 82.637178916 -s 3 -d -1 -p CTS -e 38 -c 2 -a 0 -i 0 -k MAC 
- -t 82.637178916 -s 3 -d -1 -p CTS -e 38 -c 2 -a 0 -i 0 -k MAC
h -t 82.637178916 -s 3 -d -1 -p CTS -e 38 -c 2 -a 0 -i 0 -k MAC
r -t 82.637483545 -s 1 -d -1 -p CTS -e 38 -c 2 -a 0 -i 0 -k MAC
+ -t 82.637493545 -s 1 -d -1 -p ARP -e 80 -c 2 -a 0 -i 0 -k MAC 
- -t 82.637493545 -s 1 -d -1 -p ARP -e 80 -c 2 -a 0 -i 0 -k MAC
h -t 82.637493545 -s 1 -d -1 -p ARP -e 80 -c 2 -a 0 -i 0 -k MAC
r -t 82.638134174 -s 3 -d -1 -p ARP -e 28 -c 2 -a 0 -i 0 -k MAC
+ -t 82.638144174 -s 3 -d -1 -p ACK -e 38 -c 2 -a 0 -i 0 -k MAC 
- -t 82.638144174 -s 3 -d -1 -p ACK -e 38 -c 2 -a 0 -i 0 -k MAC
h -t 82.638144174 -s 3 -d -1 -p ACK -e 38 -c 2 -a 0 -i 0 -k MAC
r -t 82.638448803 -s 1 -d -1 -p ACK -e 38 -c 2 -a 0 -i 0 -k MAC
+ -t 82.638798174 -s 3 -d -1 -p RTS -e 44 -c 2 -a 0 -i 0 -k MAC 
- -t 82.638798174 -s 3 -d -1 -p RTS -e 44 -c 2 -a 0 -i 0 -k MAC
h -t 82.638798174 -s 3 -d -1 -p RTS -e 44 -c 2 -a 0 -i 0 -k MAC
r -t 82.639150803 -s 1 -d -1 -p RTS -e 44 -c 2 -a 0 -i 0 -k MAC
+ -t 82.639160803 -s 1 -d -1 -p CTS -e 38 -c 2 -a 0 -i 0 -k MAC 
- -t 82.639160803 -s 1 -d -1 -p CTS -e 38 -c 2 -a 0 -i 0 -k MAC
h -t 82.639160803 -s 1 -d -1 -p CTS -e 38 -c 2 -a 0 -i 0 -k MAC
r -t 82.639465432 -s 3 -d -1 -p CTS -e 38 -c 2 -a 0 -i 0 -k MAC
+ -t 82.639475432 -s 3 -d 1 -p DSR -e 104 -c 2 -a 0 -i 4 -k MAC 
- -t 82.639475432 -s 3 -d 1 -p DSR -e 104 -c 2 -a 0 -i 4 -k MAC
h -t 82.639475432 -s 3 -d 1 -p DSR -e 104 -c 2 -a 0 -i 4 -k MAC
r -t 82.640308062 -s 1 -d 1 -p DSR -e 52 -c 2 -a 0 -i 4 -k MAC
+ -t 82.640318062 -s 1 -d -1 -p ACK -e 38 -c 2 -a 0 -i 0 -k MAC 
- -t 82.640318062 -s 1 -d -1 -p ACK -e 38 -c 2 -a 0 -i 0 -k MAC
h -t 82.640318062 -s 1 -d -1 -p ACK -e 38 -c 2 -a 0 -i 0 -k MAC
r -t 82.640622691 -s 3 -d -1 -p ACK -e 38 -c 2 -a 0 -i 0 -k MAC
+ -t 82.640952062 -s 1 -d -1 -p ARP -e 80 -c 2 -a 0 -i 0 -k MAC 
- -t 82.640952062 -s 1 -d -1 -p ARP -e 80 -c 2 -a 0 -i 0 -k MAC
h -t 82.640952062 -s 1 -d -1 -p ARP -e 80 -c 2 -a 0 -i 0 -k MAC
r -t 82.641592651 -s 0 -d -1 -p ARP -e 28 -c 2 -a 0 -i 0 -k MAC
r -t 82.641592691 -s 3 -d -1 -p ARP -e 28 -c 2 -a 0 -i 0 -k MAC
r -t 82.641592806 -s 2 -d -1 -p ARP -e 28 -c 2 -a 0 -i 0 -k MAC
+ -t 82.641827806 -s 2 -d -1 -p RTS -e 44 -c 2 -a 0 -i 0 -k MAC 
- -t 82.641827806 -s 2 -d -1 -p RTS -e 44 -c 2 -a 0 -i 0 -k MAC
h -t 82.641827806 -s 2 -d -1 -p RTS -e 44 -c 2 -a 0 -i 0 -k MAC
r -t 82.642180550 -s 1 -d -1 -p RTS -e 44 -c 2 -a 0 -i 0 -k MAC
+ -t 82.642190550 -s 1 -d -1 -p CTS -e 38 -c 2 -a 0 -i 0 -k MAC 
- -t 82.642190550 -s 1 -d -1 -p CTS -e 38 -c 2 -a 0 -i 0 -k MAC
h -t 82.642190550 -s 1 -d -1 -p CTS -e 38 -c 2 -a 0 -i 0 -k MAC
r -t 82.642495295 -s 2 -d -1 -p CTS -e 38 -c 2 -a 0 -i 0 -k MAC
+ -t 82.642505295 -s 2 -d -1 -p ARP -e 80 -c 2 -a 0 -i 0 -k MAC 
- -t 82.642505295 -s 2 -d -1 -p ARP -e 80 -c 2 -a 0 -i 0 -k MAC
h -t 82.642505295 -s 2 -d -1 -p ARP -e 80 -c 2 -a 0 -i 0 -k MAC
r -t 82.643146039 -s 1 -d -1 -p ARP -e 28 -c 2 -a 0 -i 0 -k MAC
+ -t 82.643156039 -s 1 -d -1 -p ACK -e 38 -c 2 -a 0 -i 0 -k MAC 
- -t 82.643156039 -s 1 -d -1 -p ACK -e 38 -c 2 -a 0 -i 0 -k MAC
h -t 82.643156039 -s 1 -d -1 -p ACK -e 38 -c 2 -a 0 -i 0 -k MAC
r -t 82.643460783 -s 2 -d -1 -p ACK -e 38 -c 2 -a 0 -i 0 -k MAC
+ -t 82.643870039 -s 1 -d -1 -p RTS -e 44 -c 2 -a 0 -i 0 -k MAC 
- -t 82.643870039 -s 1 -d -1 -p RTS -e 44 -c 2 -a 0 -i 0 -k MAC
h -t 82.643870039 -s 1 -d -1 -p RTS -e 44 -c 2 -a 0 -i 0 -k MAC
r -t 82.644222783 -s 2 -d -1 -p RTS -e 44 -c 2 -a 0 -i 0 -k MAC
+ -t 82.644232783 -s 2 -d -1 -p CTS -e 38 -c 2 -a 0 -i 0 -k MAC 
- -t 82.644232783 -s 2 -d -1 -p CTS -e 38 -c 2 -a 0 -i 0 -k MAC
h -t 82.644232783 -s 2 -d -1 -p CTS -e 38 -c 2 -a 0 -i 0 -k MAC
r -t 82.644537528 -s 1 -d -1 -p CTS -e 38 -c 2 -a 0 -i 0 -k MAC
+ -t 82.644547528 -s 1 -d 2 -p DSR -e 104 -c 2 -a 0 -i 4 -k MAC 
- -t 82.644547528 -s 1 -d 2 -p DSR -e 104 -c 2 -a 0 -i 4 -k MAC
h -t 82.644547528 -s 1 -d 2 -p DSR -e 104 -c 2 -a 0 -i 4 -k MAC
r -t 82.645380272 -s 2 -d 2 -p DSR -e 52 -c 2 -a 0 -i 4 -k MAC
+ -t 82.645390272 -s 2 -d -1 -p ACK -e 38 -c 2 -a 0 -i 0 -k MAC 
- -t 82.645390272 -s 2 -d -1 -p ACK -e 38 -c 2 -a 0 -i 0 -k MAC
h -t 82.645390272 -s 2 -d -1 -p ACK -e 38 -c 2 -a 0 -i 0 -k MAC
r -t 82.645695016 -s 1 -d -1 -p ACK -e 38 -c 2 -a 0 -i 0 -k MAC
+ -t 82.645944272 -s 2 -d -1 -p RTS -e 44 -c 2 -a 0 -i 0 -k MAC 
- -t 82.645944272 -s 2 -d -1 -p RTS -e 44 -c 2 -a 0 -i 0 -k MAC
h -t 82.645944272 -s 2 -d -1 -p RTS -e 44 -c 2 -a 0 -i 0 -k MAC
r -t 82.646297016 -s 1 -d -1 -p RTS -e 44 -c 2 -a 0 -i 0 -k MAC
+ -t 82.646307016 -s 1 -d -1 -p CTS -e 38 -c 2 -a 0 -i 0 -k MAC 
- -t 82.646307016 -s 1 -d -1 -p CTS -e 38 -c 2 -a 0 -i 0 -k MAC
h -t 82.646307016 -s 1 -d -1 -p CTS -e 38 -c 2 -a 0 -i 0 -k MAC
r -t 82.646611760 -s 2 -d -1 -p CTS -e 38 -c 2 -a 0 -i 0 -k MAC
+ -t 82.646621760 -s 2 -d 1 -p cbr -e 604 -c 2 -a 0 -i 0 -k MAC 
- -t 82.646621760 -s 2 -d 1 -p cbr -e 604 -c 2 -a 0 -i 0 -k MAC
h -t 82.646621760 -s 2 -d 1 -p cbr -e 604 -c 2 -a 0 -i 0 -k MAC
r -t 82.651454505 -s 1 -d 1 -p cbr -e 552 -c 2 -a 0 -i 0 -k MAC
+ -t 82.651464505 -s 1 -d -1 -p ACK -e 38 -c 2 -a 0 -i 0 -k MAC 
- -t 82.651464505 -s 1 -d -1 -p ACK -e 38 -c 2 -a 0 -i 0 -k MAC
h -t 82.651464505 -s 1 -d -1 -p ACK -e 38 -c 2 -a 0 -i 0 -k MAC
r -t 82.651769249 -s 2 -d -1 -p ACK -e 38 -c 2 -a 0 -i 0 -k MAC
+ -t 82.652358505 -s 1 -d -1 -p RTS -e 44 -c 2 -a 0 -i 0 -k MAC 
- -t 82.652358505 -s 1 -d -1 -p RTS -e 44 -c 2 -a 0 -i 0 -k MAC
h -t 82.652358505 -s 1 -d -1 -p RTS -e 44 -c 2 -a 0 -i 0 -k MAC
r -t 82.652711134 -s 3 -d -1 -p RTS -e 44 -c 2 -a 0 -i 0 -k MAC
+ -t 82.652721134 -s 3 -d -1 -p CTS -e 38 -c 2 -a 0 -i 0 -k MAC 
- -t 82.652721134 -s 3 -d -1 -p CTS -e 38 -c 2 -a 0 -i 0 -k MAC
h -t 82.652721134 -s 3 -d -1 -p CTS -e 38 -c 2 -a 0 -i 0 -k MAC
r -t 82.653025763 -s 1 -d -1 -p CTS -e 38 -c 2 -a 0 -i 0 -k MAC
+ -t 82.653035763 -s 1 -d 3 -p cbr -e 604 -c 2 -a 0 -i 0 -k MAC 
- -t 82.653035763 -s 1 -d 3 -p cbr -e 604 -c 2 -a 0 -i 0 -k MAC
h -t 82.653035763 -s 1 -d 3 -p cbr -e 604 -c 2 -a 0 -i 0 -k MAC
r -t 82.657868392 -s 3 -d 3 -p cbr -e 552 -c 2 -a 0 -i 0 -k MAC
+ -t 82.657878392 -s 3 -d -1 -p ACK -e 38 -c 2 -a 0 -i 0 -k MAC 
- -t 82.657878392 -s 3 -d -1 -p ACK -e 38 -c 2 -a 0 -i 0 -k MAC
h -t 82.657878392 -s 3 -d -1 -p ACK -e 38 -c 2 -a 0 -i 0 -k MAC
r -t 82.657893392 -s 3 -d 3 -p cbr -e 512 -c 2 -a 0 -i 0 -k AGT
r -t 82.658183021 -s 1 -d -1 -p ACK -e 38 -c 2 -a 0 -i 0 -k MAC
+ -t 84.854630450 -s 2 -d -1 -p cbr -e 512 -c 2 -a 0 -i 5 -k AGT 
- -t 84.854630450 -s 2 -d -1 -p cbr -e 512 -c 2 -a 0 -i 5 -k AGT
h -t 84.854630450 -s 2 -d -1 -p cbr -e 512 -c 2 -a 0 -i 5 -k AGT
+ -t 84.854905450 -s 2 -d -1 -p RTS -e 44 -c 2 -a 0 -i 0 -k MAC 
- -t 84.854905450 -s 2 -d -1 -p RTS -e 44 -c 2 -a 0 -i 0 -k MAC
h -t 84.854905450 -s 2 -d -1 -p RTS -e 44 -c 2 -a 0 -i 0 -k MAC
r -t 84.855258194 -s 1 -d -1 -p RTS -e 44 -c 2 -a 0 -i 0 -k MAC
+ -t 84.855268194 -s 1 -d -1 -p CTS -e 38 -c 2 -a 0 -i 0 -k MAC 
- -t 84.855268194 -s 1 -d -1 -p CTS -e 38 -c 2 -a 0 -i 0 -k MAC
h -t 84.855268194 -s 1 -d -1 -p CTS -e 38 -c 2 -a 0 -i 0 -k MAC
r -t 84.855572938 -s 2 -d -1 -p CTS -e 38 -c 2 -a 0 -i 0 -k MAC
+ -t 84.855582938 -s 2 -d 1 -p cbr -e 604 -c 2 -a 0 -i 5 -k MAC 
- -t 84.855582938 -s 2 -d 1 -p cbr -e 604 -c 2 -a 0 -i 5 -k MAC
h -t 84.855582938 -s 2 -d 1 -p cbr -e 604 -c 2 -a 0 -i 5 -k MAC
r -t 84.860415683 -s 1 -d 1 -p cbr -e 552 -c 2 -a 0 -i 5 -k MAC
+ -t 84.860425683 -s 1 -d -1 -p ACK -e 38 -c 2 -a 0 -i 0 -k MAC 
- -t 84.860425683 -s 1 -d -1 -p ACK -e 38 -c 2 -a 0 -i 0 -k MAC
h -t 84.860425683 -s 1 -d -1 -p ACK -e 38 -c 2 -a 0 -i 0 -k MAC
r -t 84.860730427 -s 2 -d -1 -p ACK -e 38 -c 2 -a 0 -i 0 -k MAC
+ -t 84.861059683 -s 1 -d -1 -p RTS -e 44 -c 2 -a 0 -i 0 -k MAC 
- -t 84.861059683 -s 1 -d -1 -p RTS -e 44 -c 2 -a 0 -i 0 -k MAC
h -t 84.861059683 -s 1 -d -1 -p RTS -e 44 -c 2 -a 0 -i 0 -k MAC
r -t 84.861412312 -s 3 -d -1 -p RTS -e 44 -c 2 -a 0 -i 0 -k MAC
+ -t 84.861422312 -s 3 -d -1 -p CTS -e 38 -c 2 -a 0 -i 0 -k MAC 
- -t 84.861422312 -s 3 -d -1 -p CTS -e 38 -c 2 -a 0 -i 0 -k MAC
h -t 84.861422312 -s 3 -d -1 -p CTS -e 38 -c 2 -a 0 -i 0 -k MAC
r -t 84.861726941 -s 1 -d -1 -p CTS -e 38 -c 2 -a 0 -i 0 -k MAC
+ -t 84.861736941 -s 1 -d 3 -p cbr -e 604 -c 2 -a 0 -i 5 -k MAC 
- -t 84.861736941 -s 1 -d 3 -p cbr -e 604 -c 2 -a 0 -i 5 -k MAC
h -t 84.861736941 -s 1 -d 3 -p cbr -e 604 -c 2 -a 0 -i 5 -k MAC
r -t 84.866569570 -s 3 -d 3 -p cbr -e 552 -c 2 -a 0 -i 5 -k MAC
+ -t 84.866579570 -s 3 -d -1 -p ACK -e 38 -c 2 -a 0 -i 0 -k MAC 
- -t 84.866579570 -s 3 -d -1 -p ACK -e 38 -c 2 -a 0 -i 0 -k MAC
h -t 84.866579570 -s 3 -d -1 -p ACK -e 38 -c 2 -a 0 -i 0 -k MAC
r -t 84.866594570 -s 3 -d 3 -p cbr -e 512 -c 2 -a 0 -i 5 -k AGT
r -t 84.866884199 -s 1 -d -1 -p ACK -e 38 -c 2 -a 0 -i 0 -k MAC
+ -t 87.320010784 -s 2 -d -1 -p cbr -e 512 -c 2 -a 0 -i 6 -k AGT 
- -t 87.320010784 -s 2 -d -1 -p cbr -e 512 -c 2 -a 0 -i 6 -k AGT
h -t 87.320010784 -s 2 -d -1 -p cbr -e 512 -c 2 -a 0 -i 6 -k AGT
+ -t 87.320325784 -s 2 -d -1 -p RTS -e 44 -c 2 -a 0 -i 0 -k MAC 
- -t 87.320325784 -s 2 -d -1 -p RTS -e 44 -c 2 -a 0 -i 0 -k MAC
h -t 87.320325784 -s 2 -d -1 -p RTS -e 44 -c 2 -a 0 -i 0 -k MAC
r -t 87.320678528 -s 1 -d -1 -p RTS -e 44 -c 2 -a 0 -i 0 -k MAC
+ -t 87.320688528 -s 1 -d -1 -p CTS -e 38 -c 2 -a 0 -i 0 -k MAC 
- -t 87.320688528 -s 1 -d -1 -p CTS -e 38 -c 2 -a 0 -i 0 -k MAC
h -t 87.320688528 -s 1 -d -1 -p CTS -e 38 -c 2 -a 0 -i 0 -k MAC
r -t 87.320993272 -s 2 -d -1 -p CTS -e 38 -c 2 -a 0 -i 0 -k MAC
+ -t 87.321003272 -s 2 -d 1 -p cbr -e 604 -c 2 -a 0 -i 6 -k MAC 
- -t 87.321003272 -s 2 -d 1 -p cbr -e 604 -c 2 -a 0 -i 6 -k MAC
h -t 87.321003272 -s 2 -d 1 -p cbr -e 604 -c 2 -a 0 -i 6 -k MAC
r -t 87.325836017 -s 1 -d 1 -p cbr -e 552 -c 2 -a 0 -i 6 -k MAC
+ -t 87.325846017 -s 1 -d -1 -p ACK -e 38 -c 2 -a 0 -i 0 -k MAC 
- -t 87.325846017 -s 1 -d -1 -p ACK -e 38 -c 2 -a 0 -i 0 -k MAC
h -t 87.325846017 -s 1 -d -1 -p ACK -e 38 -c 2 -a 0 -i 0 -k MAC
r -t 87.326150761 -s 2 -d -1 -p ACK -e 38 -c 2 -a 0 -i 0 -k MAC
+ -t 87.326260017 -s 1 -d -1 -p RTS -e 44 -c 2 -a 0 -i 0 -k MAC 
- -t 87.326260017 -s 1 -d -1 -p RTS -e 44 -c 2 -a 0 -i 0 -k MAC
h -t 87.326260017 -s 1 -d -1 -p RTS -e 44 -c 2 -a 0 -i 0 -k MAC
r -t 87.326612646 -s 3 -d -1 -p RTS -e 44 -c 2 -a 0 -i 0 -k MAC
+ -t 87.326622646 -s 3 -d -1 -p CTS -e 38 -c 2 -a 0 -i 0 -k MAC 
- -t 87.326622646 -s 3 -d -1 -p CTS -e 38 -c 2 -a 0 -i 0 -k MAC
h -t 87.326622646 -s 3 -d -1 -p CTS -e 38 -c 2 -a 0 -i 0 -k MAC
r -t 87.326927275 -s 1 -d -1 -p CTS -e 38 -c 2 -a 0 -i 0 -k MAC
+ -t 87.326937275 -s 1 -d 3 -p cbr -e 604 -c 2 -a 0 -i 6 -k MAC 
- -t 87.326937275 -s 1 -d 3 -p cbr -e 604 -c 2 -a 0 -i 6 -k MAC
h -t 87.326937275 -s 1 -d 3 -p cbr -e 604 -c 2 -a 0 -i 6 -k MAC
r -t 87.331769904 -s 3 -d 3 -p cbr -e 552 -c 2 -a 0 -i 6 -k MAC
+ -t 87.331779904 -s 3 -d -1 -p ACK -e 38 -c 2 -a 0 -i 0 -k MAC 
- -t 87.331779904 -s 3 -d -1 -p ACK -e 38 -c 2 -a 0 -i 0 -k MAC
h -t 87.331779904 -s 3 -d -1 -p ACK -e 38 -c 2 -a 0 -i 0 -k MAC
r -t 87.331794904 -s 3 -d 3 -p cbr -e 512 -c 2 -a 0 -i 6 -k AGT
r -t 87.332084533 -s 1 -d -1 -p ACK -e 38 -c 2 -a 0 -i 0 -k MAC
+ -t 89.295607861 -s 2 -d -1 -p cbr -e 512 -c 2 -a 0 -i 7 -k AGT 
- -t 89.295607861 -s 2 -d -1 -p cbr -e 512 -c 2 -a 0 -i 7 -k AGT
h -t 89.295607861 -s 2 -d -1 -p cbr -e 512 -c 2 -a 0 -i 7 -k AGT
+ -t 89.295722861 -s 2 -d -1 -p RTS -e 44 -c 2 -a 0 -i 0 -k MAC 
- -t 89.295722861 -s 2 -d -1 -p RTS -e 44 -c 2 -a 0 -i 0 -k MAC
h -t 89.295722861 -s 2 -d -1 -p RTS -e 44 -c 2 -a 0 -i 0 -k MAC
r -t 89.296075606 -s 1 -d -1 -p RTS -e 44 -c 2 -a 0 -i 0 -k MAC
+ -t 89.296085606 -s 1 -d -1 -p CTS -e 38 -c 2 -a 0 -i 0 -k MAC 
- -t 89.296085606 -s 1 -d -1 -p CTS -e 38 -c 2 -a 0 -i 0 -k MAC
h -t 89.296085606 -s 1 -d -1 -p CTS -e 38 -c 2 -a 0 -i 0 -k MAC
r -t 89.296390350 -s 2 -d -1 -p CTS -e 38 -c 2 -a 0 -i 0 -k MAC
+ -t 89.296400350 -s 2 -d 1 -p cbr -e 584 -c 2 -a 0 -i 7 -k MAC 
- -t 89.296400350 -s 2 -d 1 -p cbr -e 584 -c 2 -a 0 -i 7 -k MAC
h -t 89.296400350 -s 2 -d 1 -p cbr -e 584 -c 2 -a 0 -i 7 -k MAC
r -t 89.301073094 -s 1 -d 1 -p cbr -e 532 -c 2 -a 0 -i 7 -k MAC
+ -t 89.301083094 -s 1 -d -1 -p ACK -e 38 -c 2 -a 0 -i 0 -k MAC 
- -t 89.301083094 -s 1 -d -1 -p ACK -e 38 -c 2 -a 0 -i 0 -k MAC
h -t 89.301083094 -s 1 -d -1 -p ACK -e 38 -c 2 -a 0 -i 0 -k MAC
r -t 89.301387839 -s 2 -d -1 -p ACK -e 38 -c 2 -a 0 -i 0 -k MAC
+ -t 89.301957094 -s 1 -d -1 -p RTS -e 44 -c 2 -a 0 -i 0 -k MAC 
- -t 89.301957094 -s 1 -d -1 -p RTS -e 44 -c 2 -a 0 -i 0 -k MAC
h -t 89.301957094 -s 1 -d -1 -p RTS -e 44 -c 2 -a 0 -i 0 -k MAC
r -t 89.302309723 -s 3 -d -1 -p RTS -e 44 -c 2 -a 0 -i 0 -k MAC
+ -t 89.302319723 -s 3 -d -1 -p CTS -e 38 -c 2 -a 0 -i 0 -k MAC 
- -t 89.302319723 -s 3 -d -1 -p CTS -e 38 -c 2 -a 0 -i 0 -k MAC
h -t 89.302319723 -s 3 -d -1 -p CTS -e 38 -c 2 -a 0 -i 0 -k MAC
r -t 89.302624352 -s 1 -d -1 -p CTS -e 38 -c 2 -a 0 -i 0 -k MAC
+ -t 89.302634352 -s 1 -d 3 -p cbr -e 584 -c 2 -a 0 -i 7 -k MAC 
- -t 89.302634352 -s 1 -d 3 -p cbr -e 584 -c 2 -a 0 -i 7 -k MAC
h -t 89.302634352 -s 1 -d 3 -p cbr -e 584 -c 2 -a 0 -i 7 -k MAC
r -t 89.307306982 -s 3 -d 3 -p cbr -e 532 -c 2 -a 0 -i 7 -k MAC
+ -t 89.307316982 -s 3 -d -1 -p ACK -e 38 -c 2 -a 0 -i 0 -k MAC 
- -t 89.307316982 -s 3 -d -1 -p ACK -e 38 -c 2 -a 0 -i 0 -k MAC
h -t 89.307316982 -s 3 -d -1 -p ACK -e 38 -c 2 -a 0 -i 0 -k MAC
r -t 89.307331982 -s 3 -d 3 -p cbr -e 512 -c 2 -a 0 -i 7 -k AGT
r -t 89.307621611 -s 1 -d -1 -p ACK -e 38 -c 2 -a 0 -i 0 -k MAC
+ -t 90.794563045 -s 2 -d -1 -p cbr -e 512 -c 2 -a 0 -i 8 -k AGT 
- -t 90.794563045 -s 2 -d -1 -p cbr -e 512 -c 2 -a 0 -i 8 -k AGT
h -t 90.794563045 -s 2 -d -1 -p cbr -e 512 -c 2 -a 0 -i 8 -k AGT
+ -t 90.794798045 -s 2 -d -1 -p RTS -e 44 -c 2 -a 0 -i 0 -k MAC 
- -t 90.794798045 -s 2 -d -1 -p RTS -e 44 -c 2 -a 0 -i 0 -k MAC
h -t 90.794798045 -s 2 -d -1 -p RTS -e 44 -c 2 -a 0 -i 0 -k MAC
r -t 90.795150790 -s 1 -d -1 -p RTS -e 44 -c 2 -a 0 -i 0 -k MAC
+ -t 90.795160790 -s 1 -d -1 -p CTS -e 38 -c 2 -a 0 -i 0 -k MAC 
- -t 90.795160790 -s 1 -d -1 -p CTS -e 38 -c 2 -a 0 -i 0 -k MAC
h -t 90.795160790 -s 1 -d -1 -p CTS -e 38 -c 2 -a 0 -i 0 -k MAC
r -t 90.795465534 -s 2 -d -1 -p CTS -e 38 -c 2 -a 0 -i 0 -k MAC
+ -t 90.795475534 -s 2 -d 1 -p cbr -e 584 -c 2 -a 0 -i 8 -k MAC 
- -t 90.795475534 -s 2 -d 1 -p cbr -e 584 -c 2 -a 0 -i 8 -k MAC
h -t 90.795475534 -s 2 -d 1 -p cbr -e 584 -c 2 -a 0 -i 8 -k MAC
r -t 90.800148278 -s 1 -d 1 -p cbr -e 532 -c 2 -a 0 -i 8 -k MAC
+ -t 90.800158278 -s 1 -d -1 -p ACK -e 38 -c 2 -a 0 -i 0 -k MAC 
- -t 90.800158278 -s 1 -d -1 -p ACK -e 38 -c 2 -a 0 -i 0 -k MAC
h -t 90.800158278 -s 1 -d -1 -p ACK -e 38 -c 2 -a 0 -i 0 -k MAC
r -t 90.800463023 -s 2 -d -1 -p ACK -e 38 -c 2 -a 0 -i 0 -k MAC
+ -t 90.800892278 -s 1 -d -1 -p RTS -e 44 -c 2 -a 0 -i 0 -k MAC 
- -t 90.800892278 -s 1 -d -1 -p RTS -e 44 -c 2 -a 0 -i 0 -k MAC
h -t 90.800892278 -s 1 -d -1 -p RTS -e 44 -c 2 -a 0 -i 0 -k MAC
r -t 90.801244907 -s 3 -d -1 -p RTS -e 44 -c 2 -a 0 -i 0 -k MAC
+ -t 90.801254907 -s 3 -d -1 -p CTS -e 38 -c 2 -a 0 -i 0 -k MAC 
- -t 90.801254907 -s 3 -d -1 -p CTS -e 38 -c 2 -a 0 -i 0 -k MAC
h -t 90.801254907 -s 3 -d -1 -p CTS -e 38 -c 2 -a 0 -i 0 -k MAC
r -t 90.801559537 -s 1 -d -1 -p CTS -e 38 -c 2 -a 0 -i 0 -k MAC
+ -t 90.801569537 -s 1 -d 3 -p cbr -e 584 -c 2 -a 0 -i 8 -k MAC 
- -t 90.801569537 -s 1 -d 3 -p cbr -e 584 -c 2 -a 0 -i 8 -k MAC
h -t 90.801569537 -s 1 -d 3 -p cbr -e 584 -c 2 -a 0 -i 8 -k MAC
r -t 90.806242166 -s 3 -d 3 -p cbr -e 532 -c 2 -a 0 -i 8 -k MAC
+ -t 90.806252166 -s 3 -d -1 -p ACK -e 38 -c 2 -a 0 -i 0 -k MAC 
- -t 90.806252166 -s 3 -d -1 -p ACK -e 38 -c 2 -a 0 -i 0 -k MAC
h -t 90.806252166 -s 3 -d -1 -p ACK -e 38 -c 2 -a 0 -i 0 -k MAC
r -t 90.806267166 -s 3 -d 3 -p cbr -e 512 -c 2 -a 0 -i 8 -k AGT
r -t 90.806556795 -s 1 -d -1 -p ACK -e 38 -c 2 -a 0 -i 0 -k MAC
+ -t 92.549376162 -s 2 -d -1 -p cbr -e 512 -c 2 -a 0 -i 9 -k AGT 
- -t 92.549376162 -s 2 -d -1 -p cbr -e 512 -c 2 -a 0 -i 9 -k AGT
h -t 92.549376162 -s 2 -d -1 -p cbr -e 512 -c 2 -a 0 -i 9 -k AGT
+ -t 92.549871162 -s 2 -d -1 -p RTS -e 44 -c 2 -a 0 -i 0 -k MAC 
- -t 92.549871162 -s 2 -d -1 -p RTS -e 44 -c 2 -a 0 -i 0 -k MAC
h -t 92.549871162 -s 2 -d -1 -p RTS -e 44 -c 2 -a 0 -i 0 -k MAC
r -t 92.550223906 -s 1 -d -1 -p RTS -e 44 -c 2 -a 0 -i 0 -k MAC
+ -t 92.550233906 -s 1 -d -1 -p CTS -e 38 -c 2 -a 0 -i 0 -k MAC 
- -t 92.550233906 -s 1 -d -1 -p CTS -e 38 -c 2 -a 0 -i 0 -k MAC
h -t 92.550233906 -s 1 -d -1 -p CTS -e 38 -c 2 -a 0 -i 0 -k MAC
r -t 92.550538651 -s 2 -d -1 -p CTS -e 38 -c 2 -a 0 -i 0 -k MAC
+ -t 92.550548651 -s 2 -d 1 -p cbr -e 604 -c 2 -a 0 -i 9 -k MAC 
- -t 92.550548651 -s 2 -d 1 -p cbr -e 604 -c 2 -a 0 -i 9 -k MAC
h -t 92.550548651 -s 2 -d 1 -p cbr -e 604 -c 2 -a 0 -i 9 -k MAC
r -t 92.555381395 -s 1 -d 1 -p cbr -e 552 -c 2 -a 0 -i 9 -k MAC
+ -t 92.555391395 -s 1 -d -1 -p ACK -e 38 -c 2 -a 0 -i 0 -k MAC 
- -t 92.555391395 -s 1 -d -1 -p ACK -e 38 -c 2 -a 0 -i 0 -k MAC
h -t 92.555391395 -s 1 -d -1 -p ACK -e 38 -c 2 -a 0 -i 0 -k MAC
r -t 92.555696139 -s 2 -d -1 -p ACK -e 38 -c 2 -a 0 -i 0 -k MAC
+ -t 92.556265395 -s 1 -d -1 -p RTS -e 44 -c 2 -a 0 -i 0 -k MAC 
- -t 92.556265395 -s 1 -d -1 -p RTS -e 44 -c 2 -a 0 -i 0 -k MAC
h -t 92.556265395 -s 1 -d -1 -p RTS -e 44 -c 2 -a 0 -i 0 -k MAC
r -t 92.556618024 -s 3 -d -1 -p RTS -e 44 -c 2 -a 0 -i 0 -k MAC
+ -t 92.556628024 -s 3 -d -1 -p CTS -e 38 -c 2 -a 0 -i 0 -k MAC 
- -t 92.556628024 -s 3 -d -1 -p CTS -e 38 -c 2 -a 0 -i 0 -k MAC
h -t 92.556628024 -s 3 -d -1 -p CTS -e 38 -c 2 -a 0 -i 0 -k MAC
r -t 92.556932653 -s 1 -d -1 -p CTS -e 38 -c 2 -a 0 -i 0 -k MAC
+ -t 92.556942653 -s 1 -d 3 -p cbr -e 604 -c 2 -a 0 -i 9 -k MAC 
- -t 92.556942653 -s 1 -d 3 -p cbr -e 604 -c 2 -a 0 -i 9 -k MAC
h -t 92.556942653 -s 1 -d 3 -p cbr -e 604 -c 2 -a 0 -i 9 -k MAC
r -t 92.561775282 -s 3 -d 3 -p cbr -e 552 -c 2 -a 0 -i 9 -k MAC
+ -t 92.561785282 -s 3 -d -1 -p ACK -e 38 -c 2 -a 0 -i 0 -k MAC 
- -t 92.561785282 -s 3 -d -1 -p ACK -e 38 -c 2 -a 0 -i 0 -k MAC
h -t 92.561785282 -s 3 -d -1 -p ACK -e 38 -c 2 -a 0 -i 0 -k MAC
r -t 92.561800282 -s 3 -d 3 -p cbr -e 512 -c 2 -a 0 -i 9 -k AGT
r -t 92.562089912 -s 1 -d -1 -p ACK -e 38 -c 2 -a 0 -i 0 -k MAC
+ -t 93.663277831 -s 2 -d -1 -p cbr -e 512 -c 2 -a 0 -i 10 -k AGT 
- -t 93.663277831 -s 2 -d -1 -p cbr -e 512 -c 2 -a 0 -i 10 -k AGT
h -t 93.663277831 -s 2 -d -1 -p cbr -e 512 -c 2 -a 0 -i 10 -k AGT
+ -t 93.663812831 -s 2 -d -1 -p RTS -e 44 -c 2 -a 0 -i 0 -k MAC 
- -t 93.663812831 -s 2 -d -1 -p RTS -e 44 -c 2 -a 0 -i 0 -k MAC
h -t 93.663812831 -s 2 -d -1 -p RTS -e 44 -c 2 -a 0 -i 0 -k MAC
r -t 93.664165575 -s 1 -d -1 -p RTS -e 44 -c 2 -a 0 -i 0 -k MAC
+ -t 93.664175575 -s 1 -d -1 -p CTS -e 38 -c 2 -a 0 -i 0 -k MAC 
- -t 93.664175575 -s 1 -d -1 -p CTS -e 38 -c 2 -a 0 -i 0 -k MAC
h -t 93.664175575 -s 1 -d -1 -p CTS -e 38 -c 2 -a 0 -i 0 -k MAC
r -t 93.664480319 -s 2 -d -1 -p CTS -e 38 -c 2 -a 0 -i 0 -k MAC
+ -t 93.664490319 -s 2 -d 1 -p cbr -e 584 -c 2 -a 0 -i 10 -k MAC 
- -t 93.664490319 -s 2 -d 1 -p cbr -e 584 -c 2 -a 0 -i 10 -k MAC
h -t 93.664490319 -s 2 -d 1 -p cbr -e 584 -c 2 -a 0 -i 10 -k MAC
r -t 93.669163064 -s 1 -d 1 -p cbr -e 532 -c 2 -a 0 -i 10 -k MAC
+ -t 93.669173064 -s 1 -d -1 -p ACK -e 38 -c 2 -a 0 -i 0 -k MAC 
- -t 93.669173064 -s 1 -d -1 -p ACK -e 38 -c 2 -a 0 -i 0 -k MAC
h -t 93.669173064 -s 1 -d -1 -p ACK -e 38 -c 2 -a 0 -i 0 -k MAC
r -t 93.669477808 -s 2 -d -1 -p ACK -e 38 -c 2 -a 0 -i 0 -k MAC
+ -t 93.669927064 -s 1 -d -1 -p RTS -e 44 -c 2 -a 0 -i 0 -k MAC 
- -t 93.669927064 -s 1 -d -1 -p RTS -e 44 -c 2 -a 0 -i 0 -k MAC
h -t 93.669927064 -s 1 -d -1 -p RTS -e 44 -c 2 -a 0 -i 0 -k MAC
r -t 93.670279693 -s 3 -d -1 -p RTS -e 44 -c 2 -a 0 -i 0 -k MAC
+ -t 93.670289693 -s 3 -d -1 -p CTS -e 38 -c 2 -a 0 -i 0 -k MAC 
- -t 93.670289693 -s 3 -d -1 -p CTS -e 38 -c 2 -a 0 -i 0 -k MAC
h -t 93.670289693 -s 3 -d -1 -p CTS -e 38 -c 2 -a 0 -i 0 -k MAC
r -t 93.670594322 -s 1 -d -1 -p CTS -e 38 -c 2 -a 0 -i 0 -k MAC
+ -t 93.670604322 -s 1 -d 3 -p cbr -e 584 -c 2 -a 0 -i 10 -k MAC 
- -t 93.670604322 -s 1 -d 3 -p cbr -e 584 -c 2 -a 0 -i 10 -k MAC
h -t 93.670604322 -s 1 -d 3 -p cbr -e 584 -c 2 -a 0 -i 10 -k MAC
r -t 93.675276951 -s 3 -d 3 -p cbr -e 532 -c 2 -a 0 -i 10 -k MAC
+ -t 93.675286951 -s 3 -d -1 -p ACK -e 38 -c 2 -a 0 -i 0 -k MAC 
- -t 93.675286951 -s 3 -d -1 -p ACK -e 38 -c 2 -a 0 -i 0 -k MAC
h -t 93.675286951 -s 3 -d -1 -p ACK -e 38 -c 2 -a 0 -i 0 -k MAC
r -t 93.675301951 -s 3 -d 3 -p cbr -e 512 -c 2 -a 0 -i 10 -k AGT
r -t 93.675591580 -s 1 -d -1 -p ACK -e 38 -c 2 -a 0 -i 0 -k MAC
+ -t 95.037456991 -s 2 -d -1 -p cbr -e 512 -c 2 -a 0 -i 11 -k AGT 
- -t 95.037456991 -s 2 -d -1 -p cbr -e 512 -c 2 -a 0 -i 11 -k AGT
h -t 95.037456991 -s 2 -d -1 -p cbr -e 512 -c 2 -a 0 -i 11 -k AGT
+ -t 95.038111991 -s 2 -d -1 -p RTS -e 44 -c 2 -a 0 -i 0 -k MAC 
- -t 95.038111991 -s 2 -d -1 -p RTS -e 44 -c 2 -a 0 -i 0 -k MAC
h -t 95.038111991 -s 2 -d -1 -p RTS -e 44 -c 2 -a 0 -i 0 -k MAC
r -t 95.038464736 -s 1 -d -1 -p RTS -e 44 -c 2 -a 0 -i 0 -k MAC
+ -t 95.038474736 -s 1 -d -1 -p CTS -e 38 -c 2 -a 0 -i 0 -k MAC 
- -t 95.038474736 -s 1 -d -1 -p CTS -e 38 -c 2 -a 0 -i 0 -k MAC
h -t 95.038474736 -s 1 -d -1 -p CTS -e 38 -c 2 -a 0 -i 0 -k MAC
r -t 95.038779480 -s 2 -d -1 -p CTS -e 38 -c 2 -a 0 -i 0 -k MAC
+ -t 95.038789480 -s 2 -d 1 -p cbr -e 584 -c 2 -a 0 -i 11 -k MAC 
- -t 95.038789480 -s 2 -d 1 -p cbr -e 584 -c 2 -a 0 -i 11 -k MAC
h -t 95.038789480 -s 2 -d 1 -p cbr -e 584 -c 2 -a 0 -i 11 -k MAC
r -t 95.043462224 -s 1 -d 1 -p cbr -e 532 -c 2 -a 0 -i 11 -k MAC
+ -t 95.043472224 -s 1 -d -1 -p ACK -e 38 -c 2 -a 0 -i 0 -k MAC 
- -t 95.043472224 -s 1 -d -1 -p ACK -e 38 -c 2 -a 0 -i 0 -k MAC
h -t 95.043472224 -s 1 -d -1 -p ACK -e 38 -c 2 -a 0 -i 0 -k MAC
r -t 95.043776969 -s 2 -d -1 -p ACK -e 38 -c 2 -a 0 -i 0 -k MAC
+ -t 95.044426224 -s 1 -d -1 -p RTS -e 44 -c 2 -a 0 -i 0 -k MAC 
- -t 95.044426224 -s 1 -d -1 -p RTS -e 44 -c 2 -a 0 -i 0 -k MAC
h -t 95.044426224 -s 1 -d -1 -p RTS -e 44 -c 2 -a 0 -i 0 -k MAC
r -t 95.044778853 -s 3 -d -1 -p RTS -e 44 -c 2 -a 0 -i 0 -k MAC
+ -t 95.044788853 -s 3 -d -1 -p CTS -e 38 -c 2 -a 0 -i 0 -k MAC 
- -t 95.044788853 -s 3 -d -1 -p CTS -e 38 -c 2 -a 0 -i 0 -k MAC
h -t 95.044788853 -s 3 -d -1 -p CTS -e 38 -c 2 -a 0 -i 0 -k MAC
r -t 95.045093483 -s 1 -d -1 -p CTS -e 38 -c 2 -a 0 -i 0 -k MAC
+ -t 95.045103483 -s 1 -d 3 -p cbr -e 584 -c 2 -a 0 -i 11 -k MAC 
- -t 95.045103483 -s 1 -d 3 -p cbr -e 584 -c 2 -a 0 -i 11 -k MAC
h -t 95.045103483 -s 1 -d 3 -p cbr -e 584 -c 2 -a 0 -i 11 -k MAC
r -t 95.049776112 -s 3 -d 3 -p cbr -e 532 -c 2 -a 0 -i 11 -k MAC
+ -t 95.049786112 -s 3 -d -1 -p ACK -e 38 -c 2 -a 0 -i 0 -k MAC 
- -t 95.049786112 -s 3 -d -1 -p ACK -e 38 -c 2 -a 0 -i 0 -k MAC
h -t 95.049786112 -s 3 -d -1 -p ACK -e 38 -c 2 -a 0 -i 0 -k MAC
r -t 95.049801112 -s 3 -d 3 -p cbr -e 512 -c 2 -a 0 -i 11 -k AGT
r -t 95.050090741 -s 1 -d -1 -p ACK -e 38 -c 2 -a 0 -i 0 -k MAC
+ -t 96.083455375 -s 2 -d -1 -p cbr -e 512 -c 2 -a 0 -i 12 -k AGT 
- -t 96.083455375 -s 2 -d -1 -p cbr -e 512 -c 2 -a 0 -i 12 -k AGT
h -t 96.083455375 -s 2 -d -1 -p cbr -e 512 -c 2 -a 0 -i 12 -k AGT
+ -t 96.084070375 -s 2 -d -1 -p RTS -e 44 -c 2 -a 0 -i 0 -k MAC 
- -t 96.084070375 -s 2 -d -1 -p RTS -e 44 -c 2 -a 0 -i 0 -k MAC
h -t 96.084070375 -s 2 -d -1 -p RTS -e 44 -c 2 -a 0 -i 0 -k MAC
r -t 96.084423119 -s 1 -d -1 -p RTS -e 44 -c 2 -a 0 -i 0 -k MAC
+ -t 96.084433119 -s 1 -d -1 -p CTS -e 38 -c 2 -a 0 -i 0 -k MAC 
- -t 96.084433119 -s 1 -d -1 -p CTS -e 38 -c 2 -a 0 -i 0 -k MAC
h -t 96.084433119 -s 1 -d -1 -p CTS -e 38 -c 2 -a 0 -i 0 -k MAC
r -t 96.084737863 -s 2 -d -1 -p CTS -e 38 -c 2 -a 0 -i 0 -k MAC
+ -t 96.084747863 -s 2 -d 1 -p cbr -e 584 -c 2 -a 0 -i 12 -k MAC 
- -t 96.084747863 -s 2 -d 1 -p cbr -e 584 -c 2 -a 0 -i 12 -k MAC
h -t 96.084747863 -s 2 -d 1 -p cbr -e 584 -c 2 -a 0 -i 12 -k MAC
r -t 96.089420608 -s 1 -d 1 -p cbr -e 532 -c 2 -a 0 -i 12 -k MAC
+ -t 96.089430608 -s 1 -d -1 -p ACK -e 38 -c 2 -a 0 -i 0 -k MAC 
- -t 96.089430608 -s 1 -d -1 -p ACK -e 38 -c 2 -a 0 -i 0 -k MAC
h -t 96.089430608 -s 1 -d -1 -p ACK -e 38 -c 2 -a 0 -i 0 -k MAC
r -t 96.089735352 -s 2 -d -1 -p ACK -e 38 -c 2 -a 0 -i 0 -k MAC
+ -t 96.090224608 -s 1 -d -1 -p RTS -e 44 -c 2 -a 0 -i 0 -k MAC 
- -t 96.090224608 -s 1 -d -1 -p RTS -e 44 -c 2 -a 0 -i 0 -k MAC
h -t 96.090224608 -s 1 -d -1 -p RTS -e 44 -c 2 -a 0 -i 0 -k MAC
r -t 96.090577237 -s 3 -d -1 -p RTS -e 44 -c 2 -a 0 -i 0 -k MAC
+ -t 96.090587237 -s 3 -d -1 -p CTS -e 38 -c 2 -a 0 -i 0 -k MAC 
- -t 96.090587237 -s 3 -d -1 -p CTS -e 38 -c 2 -a 0 -i 0 -k MAC
h -t 96.090587237 -s 3 -d -1 -p CTS -e 38 -c 2 -a 0 -i 0 -k MAC
r -t 96.090891866 -s 1 -d -1 -p CTS -e 38 -c 2 -a 0 -i 0 -k MAC
+ -t 96.090901866 -s 1 -d 3 -p cbr -e 584 -c 2 -a 0 -i 12 -k MAC 
- -t 96.090901866 -s 1 -d 3 -p cbr -e 584 -c 2 -a 0 -i 12 -k MAC
h -t 96.090901866 -s 1 -d 3 -p cbr -e 584 -c 2 -a 0 -i 12 -k MAC
r -t 96.095574495 -s 3 -d 3 -p cbr -e 532 -c 2 -a 0 -i 12 -k MAC
+ -t 96.095584495 -s 3 -d -1 -p ACK -e 38 -c 2 -a 0 -i 0 -k MAC 
- -t 96.095584495 -s 3 -d -1 -p ACK -e 38 -c 2 -a 0 -i 0 -k MAC
h -t 96.095584495 -s 3 -d -1 -p ACK -e 38 -c 2 -a 0 -i 0 -k MAC
r -t 96.095599495 -s 3 -d 3 -p cbr -e 512 -c 2 -a 0 -i 12 -k AGT
r -t 96.095889124 -s 1 -d -1 -p ACK -e 38 -c 2 -a 0 -i 0 -k MAC
+ -t 98.062104769 -s 2 -d -1 -p cbr -e 512 -c 2 -a 0 -i 13 -k AGT 
- -t 98.062104769 -s 2 -d -1 -p cbr -e 512 -c 2 -a 0 -i 13 -k AGT
h -t 98.062104769 -s 2 -d -1 -p cbr -e 512 -c 2 -a 0 -i 13 -k AGT
+ -t 98.062439769 -s 2 -d -1 -p RTS -e 44 -c 2 -a 0 -i 0 -k MAC 
- -t 98.062439769 -s 2 -d -1 -p RTS -e 44 -c 2 -a 0 -i 0 -k MAC
h -t 98.062439769 -s 2 -d -1 -p RTS -e 44 -c 2 -a 0 -i 0 -k MAC
r -t 98.062792513 -s 1 -d -1 -p RTS -e 44 -c 2 -a 0 -i 0 -k MAC
+ -t 98.062802513 -s 1 -d -1 -p CTS -e 38 -c 2 -a 0 -i 0 -k MAC 
- -t 98.062802513 -s 1 -d -1 -p CTS -e 38 -c 2 -a 0 -i 0 -k MAC
h -t 98.062802513 -s 1 -d -1 -p CTS -e 38 -c 2 -a 0 -i 0 -k MAC
r -t 98.063107258 -s 2 -d -1 -p CTS -e 38 -c 2 -a 0 -i 0 -k MAC
+ -t 98.063117258 -s 2 -d 1 -p cbr -e 604 -c 2 -a 0 -i 13 -k MAC 
- -t 98.063117258 -s 2 -d 1 -p cbr -e 604 -c 2 -a 0 -i 13 -k MAC
h -t 98.063117258 -s 2 -d 1 -p cbr -e 604 -c 2 -a 0 -i 13 -k MAC
r -t 98.067950002 -s 1 -d 1 -p cbr -e 552 -c 2 -a 0 -i 13 -k MAC
+ -t 98.067960002 -s 1 -d -1 -p ACK -e 38 -c 2 -a 0 -i 0 -k MAC 
- -t 98.067960002 -s 1 -d -1 -p ACK -e 38 -c 2 -a 0 -i 0 -k MAC
h -t 98.067960002 -s 1 -d -1 -p ACK -e 38 -c 2 -a 0 -i 0 -k MAC
r -t 98.068264746 -s 2 -d -1 -p ACK -e 38 -c 2 -a 0 -i 0 -k MAC
+ -t 98.068654002 -s 1 -d -1 -p RTS -e 44 -c 2 -a 0 -i 0 -k MAC 
- -t 98.068654002 -s 1 -d -1 -p RTS -e 44 -c 2 -a 0 -i 0 -k MAC
h -t 98.068654002 -s 1 -d -1 -p RTS -e 44 -c 2 -a 0 -i 0 -k MAC
r -t 98.069006631 -s 3 -d -1 -p RTS -e 44 -c 2 -a 0 -i 0 -k MAC
+ -t 98.069016631 -s 3 -d -1 -p CTS -e 38 -c 2 -a 0 -i 0 -k MAC 
- -t 98.069016631 -s 3 -d -1 -p CTS -e 38 -c 2 -a 0 -i 0 -k MAC
h -t 98.069016631 -s 3 -d -1 -p CTS -e 38 -c 2 -a 0 -i 0 -k MAC
r -t 98.069321260 -s 1 -d -1 -p CTS -e 38 -c 2 -a 0 -i 0 -k MAC
+ -t 98.069331260 -s 1 -d 3 -p cbr -e 604 -c 2 -a 0 -i 13 -k MAC 
- -t 98.069331260 -s 1 -d 3 -p cbr -e 604 -c 2 -a 0 -i 13 -k MAC
h -t 98.069331260 -s 1 -d 3 -p cbr -e 604 -c 2 -a 0 -i 13 -k MAC