n -t * -s 0  -x 143.43750921878001 -y 94.217567273200004 -Z 0 -z 20  -v circle -c green
n -t * -s 1  -x 304.65324424678403 -y 167.07632596983501 -Z 0 -z 20  -v circle -c green
n -t * -s 2  -x 81.810723227699 -y 152.82536050561001 -Z 0 -z 20  -v circle -c green
n -t * -s 3  -x 325.834153339995 -y 354.615563074325 -Z 0 -z 20  -v circle -c green
n -t * -s 4  -x 23.768638624379001 -y 159.50938100993099 -Z 0 -z 20  -v circle -c green
V -t * -v 1.0a5 -a 0
W -t * -x 670 -y 670
A -t * -n 1 -p 0 -o 0xffffffff -c 31 -a 1
A -t * -h 1 -m 2147483647 -s 0
+ -t 82.557023746 -s 2 -d -1 -p cbr -e 512 -c 2 -a 0 -i 0 -k AGT 
- -t 82.557023746 -s 2 -d -1 -p cbr -e 512 -c 2 -a 0 -i 0 -k AGT
h -t 82.557023746 -s 2 -d -1 -p cbr -e 512 -c 2 -a 0 -i 0 -k AGT
+ -t 82.563764707 -s 2 -d -1 -p DSR -e 86 -c 2 -a 0 -i 1 -k MAC 
- -t 82.563764707 -s 2 -d -1 -p DSR -e 86 -c 2 -a 0 -i 1 -k MAC
h -t 82.563764707 -s 2 -d -1 -p DSR -e 86 -c 2 -a 0 -i 1 -k MAC
r -t 82.564452902 -s 4 -d -1 -p DSR -e 32 -c 2 -a 0 -i 1 -k MAC
r -t 82.564452990 -s 0 -d -1 -p DSR -e 32 -c 2 -a 0 -i 1 -k MAC
r -t 82.564453451 -s 1 -d -1 -p DSR -e 32 -c 2 -a 0 -i 1 -k MAC
+ -t 82.629395469 -s 2 -d -1 -p DSR -e 86 -c 2 -a 0 -i 3 -k MAC 
- -t 82.629395469 -s 2 -d -1 -p DSR -e 86 -c 2 -a 0 -i 3 -k MAC
h -t 82.629395469 -s 2 -d -1 -p DSR -e 86 -c 2 -a 0 -i 3 -k MAC
r -t 82.630083664 -s 4 -d -1 -p DSR -e 32 -c 2 -a 0 -i 3 -k MAC
r -t 82.630083753 -s 0 -d -1 -p DSR -e 32 -c 2 -a 0 -i 3 -k MAC
r -t 82.630084213 -s 1 -d -1 -p DSR -e 32 -c 2 -a 0 -i 3 -k MAC
+ -t 82.631061567 -s 1 -d -1 -p DSR -e 102 -c 2 -a 0 -i 3 -k MAC 
- -t 82.631061567 -s 1 -d -1 -p DSR -e 102 -c 2 -a 0 -i 3 -k MAC
h -t 82.631061567 -s 1 -d -1 -p DSR -e 102 -c 2 -a 0 -i 3 -k MAC
r -t 82.631878156 -s 0 -d -1 -p DSR -e 48 -c 2 -a 0 -i 3 -k MAC
r -t 82.631878196 -s 3 -d -1 -p DSR -e 48 -c 2 -a 0 -i 3 -k MAC
r -t 82.631878311 -s 2 -d -1 -p DSR -e 48 -c 2 -a 0 -i 3 -k MAC
+ -t 82.632408503 -s 4 -d -1 -p DSR -e 102 -c 2 -a 0 -i 3 -k MAC 
- -t 82.632408503 -s 4 -d -1 -p DSR -e 102 -c 2 -a 0 -i 3 -k MAC
h -t 82.632408503 -s 4 -d -1 -p DSR -e 102 -c 2 -a 0 -i 3 -k MAC
r -t 82.633224698 -s 2 -d -1 -p DSR -e 48 -c 2 -a 0 -i 3 -k MAC
r -t 82.633224958 -s 0 -d -1 -p DSR -e 48 -c 2 -a 0 -i 3 -k MAC
+ -t 82.633334958 -s 0 -d -1 -p DSR -e 102 -c 2 -a 0 -i 3 -k MAC 
- -t 82.633334958 -s 0 -d -1 -p DSR -e 102 -c 2 -a 0 -i 3 -k MAC
h -t 82.633334958 -s 0 -d -1 -p DSR -e 102 -c 2 -a 0 -i 3 -k MAC
r -t 82.634151241 -s 2 -d -1 -p DSR -e 48 -c 2 -a 0 -i 3 -k MAC
r -t 82.634151412 -s 4 -d -1 -p DSR -e 48 -c 2 -a 0 -i 3 -k MAC
r -t 82.634151547 -s 1 -d -1 -p DSR -e 48 -c 2 -a 0 -i 3 -k MAC
+ -t 82.636032658 -s 3 -d -1 -p ARP -e 82 -c 2 -a 0 -i 0 -k MAC 
- -t 82.636032658 -s 3 -d -1 -p ARP -e 82 -c 2 -a 0 -i 0 -k MAC
h -t 82.636032658 -s 3 -d -1 -p ARP -e 82 -c 2 -a 0 -i 0 -k MAC
r -t 82.636689287 -s 1 -d -1 -p ARP -e 28 -c 2 -a 0 -i 0 -k MAC
+ -t 82.636864287 -s 1 -d -1 -p RTS -e 46 -c 2 -a 0 -i 0 -k MAC 
- -t 82.636864287 -s 1 -d -1 -p RTS -e 46 -c 2 -a 0 -i 0 -k MAC
h -t 82.636864287 -s 1 -d -1 -p RTS -e 46 -c 2 -a 0 -i 0 -k MAC
r -t 82.637232916 -s 3 -d -1 -p RTS -e 46 -c 2 -a 0 -i 0 -k MAC
+ -t 82.637242916 -s 3 -d -1 -p CTS -e 40 -c 2 -a 0 -i 0 -k MAC 
- -t 82.637242916 -s 3 -d -1 -p CTS -e 40 -c 2 -a 0 -i 0 -k MAC
h -t 82.637242916 -s 3 -d -1 -p CTS -e 40 -c 2 -a 0 -i 0 -k MAC
r -t 82.637563545 -s 1 -d -1 -p CTS -e 40 -c 2 -a 0 -i 0 -k MAC
+ -t 82.637573545 -s 1 -d -1 -p ARP -e 82 -c 2 -a 0 -i 0 -k MAC 
- -t 82.637573545 -s 1 -d -1 -p ARP -e 82 -c 2 -a 0 -i 0 -k MAC
h -t 82.637573545 -s 1 -d -1 -p ARP -e 82 -c 2 -a 0 -i 0 -k MAC
r -t 82.638230174 -s 3 -d -1 -p ARP -e 28 -c 2 -a 0 -i 0 -k MAC
+ -t 82.638240174 -s 3 -d -1 -p ACK -e 40 -c 2 -a 0 -i 0 -k MAC 
- -t 82.638240174 -s 3 -d -1 -p ACK -e 40 -c 2 -a 0 -i 0 -k MAC
h -t 82.638240174 -s 3 -d -1 -p ACK -e 40 -c 2 -a 0 -i 0 -k MAC
r -t 82.638560803 -s 1 -d -1 -p ACK -e 40 -c 2 -a 0 -i 0 -k MAC
+ -t 82.638910174 -s 3 -d -1 -p RTS -e 46 -c 2 -a 0 -i 0 -k MAC 
- -t 82.638910174 -s 3 -d -1 -p RTS -e 46 -c 2 -a 0 -i 0 -k MAC
h -t 82.638910174 -s 3 -d -1 -p RTS -e 46 -c 2 -a 0 -i 0 -k MAC
r -t 82.639278803 -s 1 -d -1 -p RTS -e 46 -c 2 -a 0 -i 0 -k MAC
+ -t 82.639288803 -s 1 -d -1 -p CTS -e 40 -c 2 -a 0 -i 0 -k MAC 
- -t 82.639288803 -s 1 -d -1 -p CTS -e 40 -c 2 -a 0 -i 0 -k MAC
h -t 82.639288803 -s 1 -d -1 -p CTS -e 40 -c 2 -a 0 -i 0 -k MAC
r -t 82.639609432 -s 3 -d -1 -p CTS -e 40 -c 2 -a 0 -i 0 -k MAC
+ -t 82.639619432 -s 3 -d 1 -p DSR -e 106 -c 2 -a 0 -i 4 -k MAC 
- -t 82.639619432 -s 3 -d 1 -p DSR -e 106 -c 2 -a 0 -i 4 -k MAC
h -t 82.639619432 -s 3 -d 1 -p DSR -e 106 -c 2 -a 0 -i 4 -k MAC
r -t 82.640468062 -s 1 -d 1 -p DSR -e 52 -c 2 -a 0 -i 4 -k MAC
+ -t 82.640478062 -s 1 -d -1 -p ACK -e 40 -c 2 -a 0 -i 0 -k MAC 
- -t 82.640478062 -s 1 -d -1 -p ACK -e 40 -c 2 -a 0 -i 0 -k MAC
h -t 82.640478062 -s 1 -d -1 -p ACK -e 40 -c 2 -a 0 -i 0 -k MAC
r -t 82.640798691 -s 3 -d -1 -p ACK -e 40 -c 2 -a 0 -i 0 -k MAC
+ -t 82.641128062 -s 1 -d -1 -p ARP -e 82 -c 2 -a 0 -i 0 -k MAC 
- -t 82.641128062 -s 1 -d -1 -p ARP -e 82 -c 2 -a 0 -i 0 -k MAC
h -t 82.641128062 -s 1 -d -1 -p ARP -e 82 -c 2 -a 0 -i 0 -k MAC
r -t 82.641784651 -s 0 -d -1 -p ARP -e 28 -c 2 -a 0 -i 0 -k MAC
r -t 82.641784691 -s 3 -d -1 -p ARP -e 28 -c 2 -a 0 -i 0 -k MAC
r -t 82.641784806 -s 2 -d -1 -p ARP -e 28 -c 2 -a 0 -i 0 -k MAC
+ -t 82.642019806 -s 2 -d -1 -p RTS -e 46 -c 2 -a 0 -i 0 -k MAC 
- -t 82.642019806 -s 2 -d -1 -p RTS -e 46 -c 2 -a 0 -i 0 -k MAC
h -t 82.642019806 -s 2 -d -1 -p RTS -e 46 -c 2 -a 0 -i 0 -k MAC
r -t 82.642388550 -s 1 -d -1 -p RTS -e 46 -c 2 -a 0 -i 0 -k MAC
+ -t 82.642398550 -s 1 -d -1 -p CTS -e 40 -c 2 -a 0 -i 0 -k MAC 
- -t 82.642398550 -s 1 -d -1 -p CTS -e 40 -c 2 -a 0 -i 0 -k MAC
h -t 82.642398550 -s 1 -d -1 -p CTS -e 40 -c 2 -a 0 -i 0 -k MAC
r -t 82.642719295 -s 2 -d -1 -p CTS -e 40 -c 2 -a 0 -i 0 -k MAC
+ -t 82.642729295 -s 2 -d -1 -p ARP -e 82 -c 2 -a 0 -i 0 -k MAC 
- -t 82.642729295 -s 2 -d -1 -p ARP -e 82 -c 2 -a 0 -i 0 -k MAC
h -t 82.642729295 -s 2 -d -1 -p ARP -e 82 -c 2 -a 0 -i 0 -k MAC
r -t 82.643386039 -s 1 -d -1 -p ARP -e 28 -c 2 -a 0 -i 0 -k MAC
+ -t 82.643396039 -s 1 -d -1 -p ACK -e 40 -c 2 -a 0 -i 0 -k MAC 
- -t 82.643396039 -s 1 -d -1 -p ACK -e 40 -c 2 -a 0 -i 0 -k MAC
h -t 82.643396039 -s 1 -d -1 -p ACK -e 40 -c 2 -a 0 -i 0 -k MAC
r -t 82.643716783 -s 2 -d -1 -p ACK -e 40 -c 2 -a 0 -i 0 -k MAC
+ -t 82.644126039 -s 1 -d -1 -p RTS -e 46 -c 2 -a 0 -i 0 -k MAC 
- -t 82.644126039 -s 1 -d -1 -p RTS -e 46 -c 2 -a 0 -i 0 -k MAC
h -t 82.644126039 -s 1 -d -1 -p RTS -e 46 -c 2 -a 0 -i 0 -k MAC
r -t 82.644494783 -s 2 -d -1 -p RTS -e 46 -c 2 -a 0 -i 0 -k MAC
+ -t 82.644504783 -s 2 -d -1 -p CTS -e 40 -c 2 -a 0 -i 0 -k MAC 
- -t 82.644504783 -s 2 -d -1 -p CTS -e 40 -c 2 -a 0 -i 0 -k MAC
h -t 82.644504783 -s 2 -d -1 -p CTS -e 40 -c 2 -a 0 -i 0 -k MAC
r -t 82.644825528 -s 1 -d -1 -p CTS -e 40 -c 2 -a 0 -i 0 -k MAC
+ -t 82.644835528 -s 1 -d 2 -p DSR -e 106 -c 2 -a 0 -i 4 -k MAC 
- -t 82.644835528 -s 1 -d 2 -p DSR -e 106 -c 2 -a 0 -i 4 -k MAC
h -t 82.644835528 -s 1 -d 2 -p DSR -e 106 -c 2 -a 0 -i 4 -k MAC
r -t 82.645684272 -s 2 -d 2 -p DSR -e 52 -c 2 -a 0 -i 4 -k MAC
+ -t 82.645694272 -s 2 -d -1 -p ACK -e 40 -c 2 -a 0 -i 0 -k MAC 
- -t 82.645694272 -s 2 -d -1 -p ACK -e 40 -c 2 -a 0 -i 0 -k MAC
h -t 82.645694272 -s 2 -d -1 -p ACK -e 40 -c 2 -a 0 -i 0 -k MAC
r -t 82.646015016 -s 1 -d -1 -p ACK -e 40 -c 2 -a 0 -i 0 -k MAC
+ -t 82.646264272 -s 2 -d -1 -p RTS -e 46 -c 2 -a 0 -i 0 -k MAC 
- -t 82.646264272 -s 2 -d -1 -p RTS -e 46 -c 2 -a 0 -i 0 -k MAC
h -t 82.646264272 -s 2 -d -1 -p RTS -e 46 -c 2 -a 0 -i 0 -k MAC
r -t 82.646633016 -s 1 -d -1 -p RTS -e 46 -c 2 -a 0 -i 0 -k MAC
+ -t 82.646643016 -s 1 -d -1 -p CTS -e 40 -c 2 -a 0 -i 0 -k MAC 
- -t 82.646643016 -s 1 -d -1 -p CTS -e 40 -c 2 -a 0 -i 0 -k MAC
h -t 82.646643016 -s 1 -d -1 -p CTS -e 40 -c 2 -a 0 -i 0 -k MAC
r -t 82.646963760 -s 2 -d -1 -p CTS -e 40 -c 2 -a 0 -i 0 -k MAC
+ -t 82.646973760 -s 2 -d 1 -p cbr -e 606 -c 2 -a 0 -i 0 -k MAC 
- -t 82.646973760 -s 2 -d 1 -p cbr -e 606 -c 2 -a 0 -i 0 -k MAC
h -t 82.646973760 -s 2 -d 1 -p cbr -e 606 -c 2 -a 0 -i 0 -k MAC
r -t 82.651822505 -s 1 -d 1 -p cbr -e 552 -c 2 -a 0 -i 0 -k MAC
+ -t 82.651832505 -s 1 -d -1 -p ACK -e 40 -c 2 -a 0 -i 0 -k MAC 
- -t 82.651832505 -s 1 -d -1 -p ACK -e 40 -c 2 -a 0 -i 0 -k MAC
h -t 82.651832505 -s 1 -d -1 -p ACK -e 40 -c 2 -a 0 -i 0 -k MAC
r -t 82.652153249 -s 2 -d -1 -p ACK -e 40 -c 2 -a 0 -i 0 -k MAC
+ -t 82.652742505 -s 1 -d -1 -p RTS -e 46 -c 2 -a 0 -i 0 -k MAC 
- -t 82.652742505 -s 1 -d -1 -p RTS -e 46 -c 2 -a 0 -i 0 -k MAC
h -t 82.652742505 -s 1 -d -1 -p RTS -e 46 -c 2 -a 0 -i 0 -k MAC
r -t 82.653111134 -s 3 -d -1 -p RTS -e 46 -c 2 -a 0 -i 0 -k MAC
+ -t 82.653121134 -s 3 -d -1 -p CTS -e 40 -c 2 -a 0 -i 0 -k MAC 
- -t 82.653121134 -s 3 -d -1 -p CTS -e 40 -c 2 -a 0 -i 0 -k MAC
h -t 82.653121134 -s 3 -d -1 -p CTS -e 40 -c 2 -a 0 -i 0 -k MAC
r -t 82.653441763 -s 1 -d -1 -p CTS -e 40 -c 2 -a 0 -i 0 -k MAC
+ -t 82.653451763 -s 1 -d 3 -p cbr -e 606 -c 2 -a 0 -i 0 -k MAC 
- -t 82.653451763 -s 1 -d 3 -p cbr -e 606 -c 2 -a 0 -i 0 -k MAC
h -t 82.653451763 -s 1 -d 3 -p cbr -e 606 -c 2 -a 0 -i 0 -k MAC
r -t 82.658300392 -s 3 -d 3 -p cbr -e 552 -c 2 -a 0 -i 0 -k MAC
+ -t 82.658310392 -s 3 -d -1 -p ACK -e 40 -c 2 -a 0 -i 0 -k MAC 
- -t 82.658310392 -s 3 -d -1 -p ACK -e 40 -c 2 -a 0 -i 0 -k MAC
h -t 82.658310392 -s 3 -d -1 -p ACK -e 40 -c 2 -a 0 -i 0 -k MAC
r -t 82.658325392 -s 3 -d 3 -p cbr -e 512 -c 2 -a 0 -i 0 -k AGT
r -t 82.658631021 -s 1 -d -1 -p ACK -e 40 -c 2 -a 0 -i 0 -k MAC
+ -t 84.854630450 -s 2 -d -1 -p cbr -e 512 -c 2 -a 0 -i 5 -k AGT 
- -t 84.854630450 -s 2 -d -1 -p cbr -e 512 -c 2 -a 0 -i 5 -k AGT
h -t 84.854630450 -s 2 -d -1 -p cbr -e 512 -c 2 -a 0 -i 5 -k AGT
+ -t 84.854905450 -s 2 -d -1 -p RTS -e 46 -c 2 -a 0 -i 0 -k MAC 
- -t 84.854905450 -s 2 -d -1 -p RTS -e 46 -c 2 -a 0 -i 0 -k MAC
h -t 84.854905450 -s 2 -d -1 -p RTS -e 46 -c 2 -a 0 -i 0 -k MAC
r -t 84.855274194 -s 1 -d -1 -p RTS -e 46 -c 2 -a 0 -i 0 -k MAC
+ -t 84.855284194 -s 1 -d -1 -p CTS -e 40 -c 2 -a 0 -i 0 -k MAC 
- -t 84.855284194 -s 1 -d -1 -p CTS -e 40 -c 2 -a 0 -i 0 -k MAC
h -t 84.855284194 -s 1 -d -1 -p CTS -e 40 -c 2 -a 0 -i 0 -k MAC
r -t 84.855604938 -s 2 -d -1 -p CTS -e 40 -c 2 -a 0 -i 0 -k MAC
+ -t 84.855614938 -s 2 -d 1 -p cbr -e 606 -c 2 -a 0 -i 5 -k MAC 
- -t 84.855614938 -s 2 -d 1 -p cbr -e 606 -c 2 -a 0 -i 5 -k MAC
h -t 84.855614938 -s 2 -d 1 -p cbr -e 606 -c 2 -a 0 -i 5 -k MAC
r -t 84.860463683 -s 1 -d 1 -p cbr -e 552 -c 2 -a 0 -i 5 -k MAC
+ -t 84.860473683 -s 1 -d -1 -p ACK -e 40 -c 2 -a 0 -i 0 -k MAC 
- -t 84.860473683 -s 1 -d -1 -p ACK -e 40 -c 2 -a 0 -i 0 -k MAC
h -t 84.860473683 -s 1 -d -1 -p ACK -e 40 -c 2 -a 0 -i 0 -k MAC
r -t 84.860794427 -s 2 -d -1 -p ACK -e 40 -c 2 -a 0 -i 0 -k MAC
+ -t 84.861123683 -s 1 -d -1 -p RTS -e 46 -c 2 -a 0 -i 0 -k MAC 
- -t 84.861123683 -s 1 -d -1 -p RTS -e 46 -c 2 -a 0 -i 0 -k MAC
h -t 84.861123683 -s 1 -d -1 -p RTS -e 46 -c 2 -a 0 -i 0 -k MAC
r -t 84.861492312 -s 3 -d -1 -p RTS -e 46 -c 2 -a 0 -i 0 -k MAC
+ -t 84.861502312 -s 3 -d -1 -p CTS -e 40 -c 2 -a 0 -i 0 -k MAC 
- -t 84.861502312 -s 3 -d -1 -p CTS -e 40 -c 2 -a 0 -i 0 -k MAC
h -t 84.861502312 -s 3 -d -1 -p CTS -e 40 -c 2 -a 0 -i 0 -k MAC
r -t 84.861822941 -s 1 -d -1 -p CTS -e 40 -c 2 -a 0 -i 0 -k MAC
+ -t 84.861832941 -s 1 -d 3 -p cbr -e 606 -c 2 -a 0 -i 5 -k MAC 
- -t 84.861832941 -s 1 -d 3 -p cbr -e 606 -c 2 -a 0 -i 5 -k MAC
h -t 84.861832941 -s 1 -d 3 -p cbr -e 606 -c 2 -a 0 -i 5 -k MAC
r -t 84.866681570 -s 3 -d 3 -p cbr -e 552 -c 2 -a 0 -i 5 -k MAC
+ -t 84.866691570 -s 3 -d -1 -p ACK -e 40 -c 2 -a 0 -i 0 -k MAC 
- -t 84.866691570 -s 3 -d -1 -p ACK -e 40 -c 2 -a 0 -i 0 -k MAC
h -t 84.866691570 -s 3 -d -1 -p ACK -e 40 -c 2 -a 0 -i 0 -k MAC
r -t 84.866706570 -s 3 -d 3 -p cbr -e 512 -c 2 -a 0 -i 5 -k AGT
r -t 84.867012199 -s 1 -d -1 -p ACK -e 40 -c 2 -a 0 -i 0 -k MAC
+ -t 87.320010784 -s 2 -d -1 -p cbr -e 512 -c 2 -a 0 -i 6 -k AGT 
- -t 87.320010784 -s 2 -d -1 -p cbr -e 512 -c 2 -a 0 -i 6 -k AGT
h -t 87.320010784 -s 2 -d -1 -p cbr -e 512 -c 2 -a 0 -i 6 -k AGT
+ -t 87.320325784 -s 2 -d -1 -p RTS -e 46 -c 2 -a 0 -i 0 -k MAC 
- -t 87.320325784 -s 2 -d -1 -p RTS -e 46 -c 2 -a 0 -i 0 -k MAC
h -t 87.320325784 -s 2 -d -1 -p RTS -e 46 -c 2 -a 0 -i 0 -k MAC
r -t 87.320694528 -s 1 -d -1 -p RTS -e 46 -c 2 -a 0 -i 0 -k MAC
+ -t 87.320704528 -s 1 -d -1 -p CTS -e 40 -c 2 -a 0 -i 0 -k MAC 
- -t 87.320704528 -s 1 -d -1 -p CTS -e 40 -c 2 -a 0 -i 0 -k MAC
h -t 87.320704528 -s 1 -d -1 -p CTS -e 40 -c 2 -a 0 -i 0 -k MAC
r -t 87.321025272 -s 2 -d -1 -p CTS -e 40 -c 2 -a 0 -i 0 -k MAC
+ -t 87.321035272 -s 2 -d 1 -p cbr -e 606 -c 2 -a 0 -i 6 -k MAC 
- -t 87.321035272 -s 2 -d 1 -p cbr -e 606 -c 2 -a 0 -i 6 -k MAC
h -t 87.321035272 -s 2 -d 1 -p cbr -e 606 -c 2 -a 0 -i 6 -k MAC
r -t 87.325884017 -s 1 -d 1 -p cbr -e 552 -c 2 -a 0 -i 6 -k MAC
+ -t 87.325894017 -s 1 -d -1 -p ACK -e 40 -c 2 -a 0 -i 0 -k MAC 
- -t 87.325894017 -s 1 -d -1 -p ACK -e 40 -c 2 -a 0 -i 0 -k MAC
h -t 87.325894017 -s 1 -d -1 -p ACK -e 40 -c 2 -a 0 -i 0 -k MAC
r -t 87.326214761 -s 2 -d -1 -p ACK -e 40 -c 2 -a 0 -i 0 -k MAC
+ -t 87.326324017 -s 1 -d -1 -p RTS -e 46 -c 2 -a 0 -i 0 -k MAC 
- -t 87.326324017 -s 1 -d -1 -p RTS -e 46 -c 2 -a 0 -i 0 -k MAC
h -t 87.326324017 -s 1 -d -1 -p RTS -e 46 -c 2 -a 0 -i 0 -k MAC
r -t 87.326692646 -s 3 -d -1 -p RTS -e 46 -c 2 -a 0 -i 0 -k MAC
+ -t 87.326702646 -s 3 -d -1 -p CTS -e 40 -c 2 -a 0 -i 0 -k MAC 
- -t 87.326702646 -s 3 -d -1 -p CTS -e 40 -c 2 -a 0 -i 0 -k MAC
h -t 87.326702646 -s 3 -d -1 -p CTS -e 40 -c 2 -a 0 -i 0 -k MAC
r -t 87.327023275 -s 1 -d -1 -p CTS -e 40 -c 2 -a 0 -i 0 -k MAC
+ -t 87.327033275 -s 1 -d 3 -p cbr -e 606 -c 2 -a 0 -i 6 -k MAC 
- -t 87.327033275 -s 1 -d 3 -p cbr -e 606 -c 2 -a 0 -i 6 -k MAC
h -t 87.327033275 -s 1 -d 3 -p cbr -e 606 -c 2 -a 0 -i 6 -k MAC
r -t 87.331881904 -s 3 -d 3 -p cbr -e 552 -c 2 -a 0 -i 6 -k MAC
+ -t 87.331891904 -s 3 -d -1 -p ACK -e 40 -c 2 -a 0 -i 0 -k MAC 
- -t 87.331891904 -s 3 -d -1 -p ACK -e 40 -c 2 -a 0 -i 0 -k MAC
h -t 87.331891904 -s 3 -d -1 -p ACK -e 40 -c 2 -a 0 -i 0 -k MAC
r -t 87.331906904 -s 3 -d 3 -p cbr -e 512 -c 2 -a 0 -i 6 -k AGT
r -t 87.332212533 -s 1 -d -1 -p ACK -e 40 -c 2 -a 0 -i 0 -k MAC
+ -t 89.295607861 -s 2 -d -1 -p cbr -e 512 -c 2 -a 0 -i 7 -k AGT 
- -t 89.295607861 -s 2 -d -1 -p cbr -e 512 -c 2 -a 0 -i 7 -k AGT
h -t 89.295607861 -s 2 -d -1 -p cbr -e 512 -c 2 -a 0 -i 7 -k AGT
+ -t 89.295722861 -s 2 -d -1 -p RTS -e 46 -c 2 -a 0 -i 0 -k MAC 
- -t 89.295722861 -s 2 -d -1 -p RTS -e 46 -c 2 -a 0 -i 0 -k MAC
h -t 89.295722861 -s 2 -d -1 -p RTS -e 46 -c 2 -a 0 -i 0 -k MAC
r -t 89.296091606 -s 1 -d -1 -p RTS -e 46 -c 2 -a 0 -i 0 -k MAC
+ -t 89.296101606 -s 1 -d -1 -p CTS -e 40 -c 2 -a 0 -i 0 -k MAC 
- -t 89.296101606 -s 1 -d -1 -p CTS -e 40 -c 2 -a 0 -i 0 -k MAC
h -t 89.296101606 -s 1 -d -1 -p CTS -e 40 -c 2 -a 0 -i 0 -k MAC
r -t 89.296422350 -s 2 -d -1 -p CTS -e 40 -c 2 -a 0 -i 0 -k MAC
+ -t 89.296432350 -s 2 -d 1 -p cbr -e 586 -c 2 -a 0 -i 7 -k MAC 
- -t 89.296432350 -s 2 -d 1 -p cbr -e 586 -c 2 -a 0 -i 7 -k MAC
h -t 89.296432350 -s 2 -d 1 -p cbr -e 586 -c 2 -a 0 -i 7 -k MAC
r -t 89.301121094 -s 1 -d 1 -p cbr -e 532 -c 2 -a 0 -i 7 -k MAC
+ -t 89.301131094 -s 1 -d -1 -p ACK -e 40 -c 2 -a 0 -i 0 -k MAC 
- -t 89.301131094 -s 1 -d -1 -p ACK -e 40 -c 2 -a 0 -i 0 -k MAC
h -t 89.301131094 -s 1 -d -1 -p ACK -e 40 -c 2 -a 0 -i 0 -k MAC
r -t 89.301451839 -s 2 -d -1 -p ACK -e 40 -c 2 -a 0 -i 0 -k MAC
+ -t 89.302021094 -s 1 -d -1 -p RTS -e 46 -c 2 -a 0 -i 0 -k MAC 
- -t 89.302021094 -s 1 -d -1 -p RTS -e 46 -c 2 -a 0 -i 0 -k MAC
h -t 89.302021094 -s 1 -d -1 -p RTS -e 46 -c 2 -a 0 -i 0 -k MAC
r -t 89.302389723 -s 3 -d -1 -p RTS -e 46 -c 2 -a 0 -i 0 -k MAC
+ -t 89.302399723 -s 3 -d -1 -p CTS -e 40 -c 2 -a 0 -i 0 -k MAC 
- -t 89.302399723 -s 3 -d -1 -p CTS -e 40 -c 2 -a 0 -i 0 -k MAC
h -t 89.302399723 -s 3 -d -1 -p CTS -e 40 -c 2 -a 0 -i 0 -k MAC
r -t 89.302720352 -s 1 -d -1 -p CTS -e 40 -c 2 -a 0 -i 0 -k MAC
+ -t 89.302730352 -s 1 -d 3 -p cbr -e 586 -c 2 -a 0 -i 7 -k MAC 
- -t 89.302730352 -s 1 -d 3 -p cbr -e 586 -c 2 -a 0 -i 7 -k MAC
h -t 89.302730352 -s 1 -d 3 -p cbr -e 586 -c 2 -a 0 -i 7 -k MAC
r -t 89.307418982 -s 3 -d 3 -p cbr -e 532 -c 2 -a 0 -i 7 -k MAC
+ -t 89.307428982 -s 3 -d -1 -p ACK -e 40 -c 2 -a 0 -i 0 -k MAC 
- -t 89.307428982 -s 3 -d -1 -p ACK -e 40 -c 2 -a 0 -i 0 -k MAC
h -t 89.307428982 -s 3 -d -1 -p ACK -e 40 -c 2 -a 0 -i 0 -k MAC
r -t 89.307443982 -s 3 -d 3 -p cbr -e 512 -c 2 -a 0 -i 7 -k AGT
r -t 89.307749611 -s 1 -d -1 -p ACK -e 40 -c 2 -a 0 -i 0 -k MAC
+ -t 90.794563045 -s 2 -d -1 -p cbr -e 512 -c 2 -a 0 -i 8 -k AGT 
- -t 90.794563045 -s 2 -d -1 -p cbr -e 512 -c 2 -a 0 -i 8 -k AGT
h -t 90.794563045 -s 2 -d -1 -p cbr -e 512 -c 2 -a 0 -i 8 -k AGT
+ -t 90.794798045 -s 2 -d -1 -p RTS -e 46 -c 2 -a 0 -i 0 -k MAC 
- -t 90.794798045 -s 2 -d -1 -p RTS -e 46 -c 2 -a 0 -i 0 -k MAC
h -t 90.794798045 -s 2 -d -1 -p RTS -e 46 -c 2 -a 0 -i 0 -k MAC
r -t 90.795166790 -s 1 -d -1 -p RTS -e 46 -c 2 -a 0 -i 0 -k MAC
+ -t 90.795176790 -s 1 -d -1 -p CTS -e 40 -c 2 -a 0 -i 0 -k MAC 
- -t 90.795176790 -s 1 -d -1 -p CTS -e 40 -c 2 -a 0 -i 0 -k MAC
h -t 90.795176790 -s 1 -d -1 -p CTS -e 40 -c 2 -a 0 -i 0 -k MAC
r -t 90.795497534 -s 2 -d -1 -p CTS -e 40 -c 2 -a 0 -i 0 -k MAC
+ -t 90.795507534 -s 2 -d 1 -p cbr -e 586 -c 2 -a 0 -i 8 -k MAC 
- -t 90.795507534 -s 2 -d 1 -p cbr -e 586 -c 2 -a 0 -i 8 -k MAC
h -t 90.795507534 -s 2 -d 1 -p cbr -e 586 -c 2 -a 0 -i 8 -k MAC
r -t 90.800196278 -s 1 -d 1 -p cbr -e 532 -c 2 -a 0 -i 8 -k MAC
+ -t 90.800206278 -s 1 -d -1 -p ACK -e 40 -c 2 -a 0 -i 0 -k MAC 
- -t 90.800206278 -s 1 -d -1 -p ACK -e 40 -c 2 -a 0 -i 0 -k MAC
h -t 90.800206278 -s 1 -d -1 -p ACK -e 40 -c 2 -a 0 -i 0 -k MAC
r -t 90.800527023 -s 2 -d -1 -p ACK -e 40 -c 2 -a 0 -i 0 -k MAC
+ -t 90.800956278 -s 1 -d -1 -p RTS -e 46 -c 2 -a 0 -i 0 -k MAC 
- -t 90.800956278 -s 1 -d -1 -p RTS -e 46 -c 2 -a 0 -i 0 -k MAC
h -t 90.800956278 -s 1 -d -1 -p RTS -e 46 -c 2 -a 0 -i 0 -k MAC
r -t 90.801324907 -s 3 -d -1 -p RTS -e 46 -c 2 -a 0 -i 0 -k MAC
+ -t 90.801334907 -s 3 -d -1 -p CTS -e 40 -c 2 -a 0 -i 0 -k MAC 
- -t 90.801334907 -s 3 -d -1 -p CTS -e 40 -c 2 -a 0 -i 0 -k MAC
h -t 90.801334907 -s 3 -d -1 -p CTS -e 40 -c 2 -a 0 -i 0 -k MAC
r -t 90.801655537 -s 1 -d -1 -p CTS -e 40 -c 2 -a 0 -i 0 -k MAC
+ -t 90.801665537 -s 1 -d 3 -p cbr -e 586 -c 2 -a 0 -i 8 -k MAC 
- -t 90.801665537 -s 1 -d 3 -p cbr -e 586 -c 2 -a 0 -i 8 -k MAC
h -t 90.801665537 -s 1 -d 3 -p cbr -e 586 -c 2 -a 0 -i 8 -k MAC
r -t 90.806354166 -s 3 -d 3 -p cbr -e 532 -c 2 -a 0 -i 8 -k MAC
+ -t 90.806364166 -s 3 -d -1 -p ACK -e 40 -c 2 -a 0 -i 0 -k MAC 
- -t 90.806364166 -s 3 -d -1 -p ACK -e 40 -c 2 -a 0 -i 0 -k MAC
h -t 90.806364166 -s 3 -d -1 -p ACK -e 40 -c 2 -a 0 -i 0 -k MAC
r -t 90.806379166 -s 3 -d 3 -p cbr -e 512 -c 2 -a 0 -i 8 -k AGT
r -t 90.806684795 -s 1 -d -1 -p ACK -e 40 -c 2 -a 0 -i 0 -k MAC
+ -t 92.549376162 -s 2 -d -1 -p cbr -e 512 -c 2 -a 0 -i 9 -k AGT 
- -t 92.549376162 -s 2 -d -1 -p cbr -e 512 -c 2 -a 0 -i 9 -k AGT
h -t 92.549376162 -s 2 -d -1 -p cbr -e 512 -c 2 -a 0 -i 9 -k AGT
+ -t 92.549871162 -s 2 -d -1 -p RTS -e 46 -c 2 -a 0 -i 0 -k MAC 
- -t 92.549871162 -s 2 -d -1 -p RTS -e 46 -c 2 -a 0 -i 0 -k MAC
h -t 92.549871162 -s 2 -d -1 -p RTS -e 46 -c 2 -a 0 -i 0 -k MAC
r -t 92.550239906 -s 1 -d -1 -p RTS -e 46 -c 2 -a 0 -i 0 -k MAC
+ -t 92.550249906 -s 1 -d -1 -p CTS -e 40 -c 2 -a 0 -i 0 -k MAC 
- -t 92.550249906 -s 1 -d -1 -p CTS -e 40 -c 2 -a 0 -i 0 -k MAC
h -t 92.550249906 -s 1 -d -1 -p CTS -e 40 -c 2 -a 0 -i 0 -k MAC
r -t 92.550570651 -s 2 -d -1 -p CTS -e 40 -c 2 -a 0 -i 0 -k MAC
+ -t 92.550580651 -s 2 -d 1 -p cbr -e 606 -c 2 -a 0 -i 9 -k MAC 
- -t 92.550580651 -s 2 -d 1 -p cbr -e 606 -c 2 -a 0 -i 9 -k MAC
h -t 92.550580651 -s 2 -d 1 -p cbr -e 606 -c 2 -a 0 -i 9 -k MAC
r -t 92.555429395 -s 1 -d 1 -p cbr -e 552 -c 2 -a 0 -i 9 -k MAC
+ -t 92.555439395 -s 1 -d -1 -p ACK -e 40 -c 2 -a 0 -i 0 -k MAC 
- -t 92.555439395 -s 1 -d -1 -p ACK -e 40 -c 2 -a 0 -i 0 -k MAC
h -t 92.555439395 -s 1 -d -1 -p ACK -e 40 -c 2 -a 0 -i 0 -k MAC
r -t 92.555760139 -s 2 -d -1 -p ACK -e 40 -c 2 -a 0 -i 0 -k MAC
+ -t 92.556329395 -s 1 -d -1 -p RTS -e 46 -c 2 -a 0 -i 0 -k MAC 
- -t 92.556329395 -s 1 -d -1 -p RTS -e 46 -c 2 -a 0 -i 0 -k MAC
h -t 92.556329395 -s 1 -d -1 -p RTS -e 46 -c 2 -a 0 -i 0 -k MAC
r -t 92.556698024 -s 3 -d -1 -p RTS -e 46 -c 2 -a 0 -i 0 -k MAC
+ -t 92.556708024 -s 3 -d -1 -p CTS -e 40 -c 2 -a 0 -i 0 -k MAC 
- -t 92.556708024 -s 3 -d -1 -p CTS -e 40 -c 2 -a 0 -i 0 -k MAC
h -t 92.556708024 -s 3 -d -1 -p CTS -e 40 -c 2 -a 0 -i 0 -k MAC
r -t 92.557028653 -s 1 -d -1 -p CTS -e 40 -c 2 -a 0 -i 0 -k MAC
+ -t 92.557038653 -s 1 -d 3 -p cbr -e 606 -c 2 -a 0 -i 9 -k MAC 
- -t 92.557038653 -s 1 -d 3 -p cbr -e 606 -c 2 -a 0 -i 9 -k MAC
h -t 92.557038653 -s 1 -d 3 -p cbr -e 606 -c 2 -a 0 -i 9 -k MAC
r -t 92.561887282 -s 3 -d 3 -p cbr -e 552 -c 2 -a 0 -i 9 -k MAC
+ -t 92.561897282 -s 3 -d -1 -p ACK -e 40 -c 2 -a 0 -i 0 -k MAC 
- -t 92.561897282 -s 3 -d -1 -p ACK -e 40 -c 2 -a 0 -i 0 -k MAC
h -t 92.561897282 -s 3 -d -1 -p ACK -e 40 -c 2 -a 0 -i 0 -k MAC
r -t 92.561912282 -s 3 -d 3 -p cbr -e 512 -c 2 -a 0 -i 9 -k AGT
r -t 92.562217912 -s 1 -d -1 -p ACK -e 40 -c 2 -a 0 -i 0 -k MAC
+ -t 93.663277831 -s 2 -d -1 -p cbr -e 512 -c 2 -a 0 -i 10 -k AGT 
- -t 93.663277831 -s 2 -d -1 -p cbr -e 512 -c 2 -a 0 -i 10 -k AGT
h -t 93.663277831 -s 2 -d -1 -p cbr -e 512 -c 2 -a 0 -i 10 -k AGT
+ -t 93.663812831 -s 2 -d -1 -p RTS -e 46 -c 2 -a 0 -i 0 -k MAC 
- -t 93.663812831 -s 2 -d -1 -p RTS -e 46 -c 2 -a 0 -i 0 -k MAC
h -t 93.663812831 -s 2 -d -1 -p RTS -e 46 -c 2 -a 0 -i 0 -k MAC
r -t 93.664181575 -s 1 -d -1 -p RTS -e 46 -c 2 -a 0 -i 0 -k MAC
+ -t 93.664191575 -s 1 -d -1 -p CTS -e 40 -c 2 -a 0 -i 0 -k MAC 
- -t 93.664191575 -s 1 -d -1 -p CTS -e 40 -c 2 -a 0 -i 0 -k MAC
h -t 93.664191575 -s 1 -d -1 -p CTS -e 40 -c 2 -a 0 -i 0 -k MAC
r -t 93.664512319 -s 2 -d -1 -p CTS -e 40 -c 2 -a 0 -i 0 -k MAC
+ -t 93.664522319 -s 2 -d 1 -p cbr -e 586 -c 2 -a 0 -i 10 -k MAC 
- -t 93.664522319 -s 2 -d 1 -p cbr -e 586 -c 2 -a 0 -i 10 -k MAC
h -t 93.664522319 -s 2 -d 1 -p cbr -e 586 -c 2 -a 0 -i 10 -k MAC
r -t 93.669211064 -s 1 -d 1 -p cbr -e 532 -c 2 -a 0 -i 10 -k MAC
+ -t 93.669221064 -s 1 -d -1 -p ACK -e 40 -c 2 -a 0 -i 0 -k MAC 
- -t 93.669221064 -s 1 -d -1 -p ACK -e 40 -c 2 -a 0 -i 0 -k MAC
h -t 93.669221064 -s 1 -d -1 -p ACK -e 40 -c 2 -a 0 -i 0 -k MAC
r -t 93.669541808 -s 2 -d -1 -p ACK -e 40 -c 2 -a 0 -i 0 -k MAC
+ -t 93.669991064 -s 1 -d -1 -p RTS -e 46 -c 2 -a 0 -i 0 -k MAC 
- -t 93.669991064 -s 1 -d -1 -p RTS -e 46 -c 2 -a 0 -i 0 -k MAC
h -t 93.669991064 -s 1 -d -1 -p RTS -e 46 -c 2 -a 0 -i 0 -k MAC
r -t 93.670359693 -s 3 -d -1 -p RTS -e 46 -c 2 -a 0 -i 0 -k MAC
+ -t 93.670369693 -s 3 -d -1 -p CTS -e 40 -c 2 -a 0 -i 0 -k MAC 
- -t 93.670369693 -s 3 -d -1 -p CTS -e 40 -c 2 -a 0 -i 0 -k MAC
h -t 93.670369693 -s 3 -d -1 -p CTS -e 40 -c 2 -a 0 -i 0 -k MAC
r -t 93.670690322 -s 1 -d -1 -p CTS -e 40 -c 2 -a 0 -i 0 -k MAC
+ -t 93.670700322 -s 1 -d 3 -p cbr -e 586 -c 2 -a 0 -i 10 -k MAC 
- -t 93.670700322 -s 1 -d 3 -p cbr -e 586 -c 2 -a 0 -i 10 -k MAC
h -t 93.670700322 -s 1 -d 3 -p cbr -e 586 -c 2 -a 0 -i 10 -k MAC
r -t 93.675388951 -s 3 -d 3 -p cbr -e 532 -c 2 -a 0 -i 10 -k MAC
+ -t 93.675398951 -s 3 -d -1 -p ACK -e 40 -c 2 -a 0 -i 0 -k MAC 
- -t 93.675398951 -s 3 -d -1 -p ACK -e 40 -c 2 -a 0 -i 0 -k MAC
h -t 93.675398951 -s 3 -d -1 -p ACK -e 40 -c 2 -a 0 -i 0 -k MAC
r -t 93.675413951 -s 3 -d 3 -p cbr -e 512 -c 2 -a 0 -i 10 -k AGT
r -t 93.675719580 -s 1 -d -1 -p ACK -e 40 -c 2 -a 0 -i 0 -k MAC
+ -t 95.037456991 -s 2 -d -1 -p cbr -e 512 -c 2 -a 0 -i 11 -k AGT 
- -t 95.037456991 -s 2 -d -1 -p cbr -e 512 -c 2 -a 0 -i 11 -k AGT
h -t 95.037456991 -s 2 -d -1 -p cbr -e 512 -c 2 -a 0 -i 11 -k AGT
+ -t 95.038111991 -s 2 -d -1 -p RTS -e 46 -c 2 -a 0 -i 0 -k MAC 
- -t 95.038111991 -s 2 -d -1 -p RTS -e 46 -c 2 -a 0 -i 0 -k MAC
h -t 95.038111991 -s 2 -d -1 -p RTS -e 46 -c 2 -a 0 -i 0 -k MAC
r -t 95.038480736 -s 1 -d -1 -p RTS -e 46 -c 2 -a 0 -i 0 -k MAC
+ -t 95.038490736 -s 1 -d -1 -p CTS -e 40 -c 2 -a 0 -i 0 -k MAC 
- -t 95.038490736 -s 1 -d -1 -p CTS -e 40 -c 2 -a 0 -i 0 -k MAC
h -t 95.038490736 -s 1 -d -1 -p CTS -e 40 -c 2 -a 0 -i 0 -k MAC
r -t 95.038811480 -s 2 -d -1 -p CTS -e 40 -c 2 -a 0 -i 0 -k MAC
+ -t 95.038821480 -s 2 -d 1 -p cbr -e 586 -c 2 -a 0 -i 11 -k MAC 
- -t 95.038821480 -s 2 -d 1 -p cbr -e 586 -c 2 -a 0 -i 11 -k MAC
h -t 95.038821480 -s 2 -d 1 -p cbr -e 586 -c 2 -a 0 -i 11 -k MAC
r -t 95.043510224 -s 1 -d 1 -p cbr -e 532 -c 2 -a 0 -i 11 -k MAC
+ -t 95.043520224 -s 1 -d -1 -p ACK -e 40 -c 2 -a 0 -i 0 -k MAC 
- -t 95.043520224 -s 1 -d -1 -p ACK -e 40 -c 2 -a 0 -i 0 -k MAC
h -t 95.043520224 -s 1 -d -1 -p ACK -e 40 -c 2 -a 0 -i 0 -k MAC
r -t 95.043840969 -s 2 -d -1 -p ACK -e 40 -c 2 -a 0 -i 0 -k MAC
+ -t 95.044490224 -s 1 -d -1 -p RTS -e 46 -c 2 -a 0 -i 0 -k MAC 
- -t 95.044490224 -s 1 -d -1 -p RTS -e 46 -c 2 -a 0 -i 0 -k MAC
h -t 95.044490224 -s 1 -d -1 -p RTS -e 46 -c 2 -a 0 -i 0 -k MAC
r -t 95.044858853 -s 3 -d -1 -p RTS -e 46 -c 2 -a 0 -i 0 -k MAC
+ -t 95.044868853 -s 3 -d -1 -p CTS -e 40 -c 2 -a 0 -i 0 -k MAC 
- -t 95.044868853 -s 3 -d -1 -p CTS -e 40 -c 2 -a 0 -i 0 -k MAC
h -t 95.044868853 -s 3 -d -1 -p CTS -e 40 -c 2 -a 0 -i 0 -k MAC
r -t 95.045189483 -s 1 -d -1 -p CTS -e 40 -c 2 -a 0 -i 0 -k MAC
+ -t 95.045199483 -s 1 -d 3 -p cbr -e 586 -c 2 -a 0 -i 11 -k MAC 
- -t 95.045199483 -s 1 -d 3 -p cbr -e 586 -c 2 -a 0 -i 11 -k MAC
h -t 95.045199483 -s 1 -d 3 -p cbr -e 586 -c 2 -a 0 -i 11 -k MAC
r -t 95.049888112 -s 3 -d 3 -p cbr -e 532 -c 2 -a 0 -i 11 -k MAC
+ -t 95.049898112 -s 3 -d -1 -p ACK -e 40 -c 2 -a 0 -i 0 -k MAC 
- -t 95.049898112 -s 3 -d -1 -p ACK -e 40 -c 2 -a 0 -i 0 -k MAC
h -t 95.049898112 -s 3 -d -1 -p ACK -e 40 -c 2 -a 0 -i 0 -k MAC
r -t 95.049913112 -s 3 -d 3 -p cbr -e 512 -c 2 -a 0 -i 11 -k AGT
r -t 95.050218741 -s 1 -d -1 -p ACK -e 40 -c 2 -a 0 -i 0 -k MAC
+ -t 96.083455375 -s 2 -d -1 -p cbr -e 512 -c 2 -a 0 -i 12 -k AGT 
- -t 96.083455375 -s 2 -d -1 -p cbr -e 512 -c 2 -a 0 -i 12 -k AGT
h -t 96.083455375 -s 2 -d -1 -p cbr -e 512 -c 2 -a 0 -i 12 -k AGT
+ -t 96.084070375 -s 2 -d -1 -p RTS -e 46 -c 2 -a 0 -i 0 -k MAC 
- -t 96.084070375 -s 2 -d -1 -p RTS -e 46 -c 2 -a 0 -i 0 -k MAC
h -t 96.084070375 -s 2 -d -1 -p RTS -e 46 -c 2 -a 0 -i 0 -k MAC
r -t 96.084439119 -s 1 -d -1 -p RTS -e 46 -c 2 -a 0 -i 0 -k MAC
+ -t 96.084449119 -s 1 -d -1 -p CTS -e 40 -c 2 -a 0 -i 0 -k MAC 
- -t 96.084449119 -s 1 -d -1 -p CTS -e 40 -c 2 -a 0 -i 0 -k MAC
h -t 96.084449119 -s 1 -d -1 -p CTS -e 40 -c 2 -a 0 -i 0 -k MAC
r -t 96.084769863 -s 2 -d -1 -p CTS -e 40 -c 2 -a 0 -i 0 -k MAC
+ -t 96.084779863 -s 2 -d 1 -p cbr -e 586 -c 2 -a 0 -i 12 -k MAC 
- -t 96.084779863 -s 2 -d 1 -p cbr -e 586 -c 2 -a 0 -i 12 -k MAC
h -t 96.084779863 -s 2 -d 1 -p cbr -e 586 -c 2 -a 0 -i 12 -k MAC
r -t 96.089468608 -s 1 -d 1 -p cbr -e 532 -c 2 -a 0 -i 12 -k MAC
+ -t 96.089478608 -s 1 -d -1 -p ACK -e 40 -c 2 -a 0 -i 0 -k MAC 
- -t 96.089478608 -s 1 -d -1 -p ACK -e 40 -c 2 -a 0 -i 0 -k MAC
h -t 96.089478608 -s 1 -d -1 -p ACK -e 40 -c 2 -a 0 -i 0 -k MAC
r -t 96.089799352 -s 2 -d -1 -p ACK -e 40 -c 2 -a 0 -i 0 -k MAC
+ -t 96.090288608 -s 1 -d -1 -p RTS -e 46 -c 2 -a 0 -i 0 -k MAC 
- -t 96.090288608 -s 1 -d -1 -p RTS -e 46 -c 2 -a 0 -i 0 -k MAC
h -t 96.090288608 -s 1 -d -1 -p RTS -e 46 -c 2 -a 0 -i 0 -k MAC
r -t 96.090657237 -s 3 -d -1 -p RTS -e 46 -c 2 -a 0 -i 0 -k MAC
+ -t 96.090667237 -s 3 -d -1 -p CTS -e 40 -c 2 -a 0 -i 0 -k MAC 
- -t 96.090667237 -s 3 -d -1 -p CTS -e 40 -c 2 -a 0 -i 0 -k MAC
h -t 96.090667237 -s 3 -d -1 -p CTS -e 40 -c 2 -a 0 -i 0 -k MAC
r -t 96.090987866 -s 1 -d -1 -p CTS -e 40 -c 2 -a 0 -i 0 -k MAC
+ -t 96.090997866 -s 1 -d 3 -p cbr -e 586 -c 2 -a 0 -i 12 -k MAC 
- -t 96.090997866 -s 1 -d 3 -p cbr -e 586 -c 2 -a 0 -i 12 -k MAC
h -t 96.090997866 -s 1 -d 3 -p cbr -e 586 -c 2 -a 0 -i 12 -k MAC
r -t 96.095686495 -s 3 -d 3 -p cbr -e 532 -c 2 -a 0 -i 12 -k MAC
+ -t 96.095696495 -s 3 -d -1 -p ACK -e 40 -c 2 -a 0 -i 0 -k MAC 
- -t 96.095696495 -s 3 -d -1 -p ACK -e 40 -c 2 -a 0 -i 0 -k MAC
h -t 96.095696495 -s 3 -d -1 -p ACK -e 40 -c 2 -a 0 -i 0 -k MAC
r -t 96.095711495 -s 3 -d 3 -p cbr -e 512 -c 2 -a 0 -i 12 -k AGT
r -t 96.096017124 -s 1 -d -1 -p ACK -e 40 -c 2 -a 0 -i 0 -k MAC
+ -t 98.062104769 -s 2 -d -1 -p cbr -e 512 -c 2 -a 0 -i 13 -k AGT 
- -t 98.062104769 -s 2 -d -1 -p cbr -e 512 -c 2 -a 0 -i 13 -k AGT
h -t 98.062104769 -s 2 -d -1 -p cbr -e 512 -c 2 -a 0 -i 13 -k AGT
+ -t 98.062439769 -s 2 -d -1 -p RTS -e 46 -c 2 -a 0 -i 0 -k MAC 
- -t 98.062439769 -s 2 -d -1 -p RTS -e 46 -c 2 -a 0 -i 0 -k MAC
h -t 98.062439769 -s 2 -d -1 -p RTS -e 46 -c 2 -a 0 -i 0 -k MAC
r -t 98.062808513 -s 1 -d -1 -p RTS -e 46 -c 2 -a 0 -i 0 -k MAC
+ -t 98.062818513 -s 1 -d -1 -p CTS -e 40 -c 2 -a 0 -i 0 -k MAC 
- -t 98.062818513 -s 1 -d -1 -p CTS -e 40 -c 2 -a 0 -i 0 -k MAC
h -t 98.062818513 -s 1 -d -1 -p CTS -e 40 -c 2 -a 0 -i 0 -k MAC
r -t 98.063139258 -s 2 -d -1 -p CTS -e 40 -c 2 -a 0 -i 0 -k MAC
+ -t 98.063149258 -s 2 -d 1 -p cbr -e 606 -c 2 -a 0 -i 13 -k MAC 
- -t 98.063149258 -s 2 -d 1 -p cbr -e 606 -c 2 -a 0 -i 13 -k MAC
h -t 98.063149258 -s 2 -d 1 -p cbr -e 606 -c 2 -a 0 -i 13 -k MAC
r -t 98.067998002 -s 1 -d 1 -p cbr -e 552 -c 2 -a 0 -i 13 -k MAC
+ -t 98.068008002 -s 1 -d -1 -p ACK -e 40 -c 2 -a 0 -i 0 -k MAC 
- -t 98.068008002 -s 1 -d -1 -p ACK -e 40 -c 2 -a 0 -i 0 -k MAC
h -t 98.068008002 -s 1 -d -1 -p ACK -e 40 -c 2 -a 0 -i 0 -k MAC
r -t 98.068328746 -s 2 -d -1 -p ACK -e 40 -c 2 -a 0 -i 0 -k MAC
+ -t 98.068718002 -s 1 -d -1 -p RTS -e 46 -c 2 -a 0 -i 0 -k MAC 
- -t 98.068718002 -s 1 -d -1 -p RTS -e 46 -c 2 -a 0 -i 0 -k MAC
h -t 98.068718002 -s 1 -d -1 -p RTS -e 46 -c 2 -a 0 -i 0 -k MAC
r -t 98.069086631 -s 3 -d -1 -p RTS -e 46 -c 2 -a 0 -i 0 -k MAC
+ -t 98.069096631 -s 3 -d -1 -p CTS -e 40 -c 2 -a 0 -i 0 -k MAC 
- -t 98.069096631 -s 3 -d -1 -p CTS -e 40 -c 2 -a 0 -i 0 -k MAC
h -t 98.069096631 -s 3 -d -1 -p CTS -e 40 -c 2 -a 0 -i 0 -k MAC
r -t 98.069417260 -s 1 -d -1 -p CTS -e 40 -c 2 -a 0 -i 0 -k MAC
+ -t 98.069427260 -s 1 -d 3 -p cbr -e 606 -c 2 -a 0 -i 13 -k MAC 
- -t 98.069427260 -s 1 -d 3 -p cbr -e 606 -c 2 -a 0 -i 13 -k MAC
h -t 98.069427260 -s 1 -d 3 -p cbr -e 606 -c 2 -a 0 -i 13 -k MAC