M 0.0 nn:5 x:670 y:670 rp:dsdv
M 0.0 sc:../mobility/scene/scen-3-test cp: seed:0.0
M 0.0 prop:Propagation/TwoRayGround ant:Antenna/OmniAntenna
M 33.00000 4194305 (83.36, 239.44, 0.00), (89.66, 283.49), 19.15
M 50.00000 4194307 (591.26, 199.37, 0.00), (369.46, 170.52), 3.37
M 51.00000 4194306 (257.05, 345.36, 0.00), (221.83, 80.86), 14.91
r 160.036823502 _6_ AGT  --- 75 tcp 1460 [13a 4 3 800] ------- [2048:0 4194307:0 29 4194307] [0 0] 2 0
s 160.036823502 _6_ AGT  --- 76 ack 40 [0 0 0 0] ------- [4194307:0 2048:0 32 0] [0 0] 0 0
r 166.030388072 _6_ AGT  --- 78 tcp 1460 [13a 4 3 800] ------- [2048:0 4194307:0 29 4194307] [0 0] 2 0
s 166.030388072 _6_ AGT  --- 79 ack 40 [0 0 0 0] ------- [4194307:0 2048:0 32 0] [0 0] 0 0
r 178.030768072 _6_ AGT  --- 85 tcp 1460 [13a 4 3 800] ------- [2048:0 4194307:0 29 4194307] [0 0] 2 0
s 178.030768072 _6_ AGT  --- 86 ack 40 [0 0 0 0] ------- [4194307:0 2048:0 32 0] [0 0] 0 0
s 200.000000000 _4_ AGT  --- 96 tcp 1460 [0 0 0 0] ------- [4194305:1 0:1 32 0] [0 0] 0 0
r 202.031188072 _6_ AGT  --- 98 tcp 1460 [13a 4 3 800] ------- [2048:0 4194307:0 29 4194307] [0 0] 2 0
s 202.031188072 _6_ AGT  --- 99 ack 40 [0 0 0 0] ------- [4194307:0 2048:0 32 0] [0 0] 0 0
s 206.000000000 _4_ AGT  --- 100 tcp 1460 [0 0 0 0] ------- [4194305:1 0:1 32 0] [0 0] 0 0
s 218.000000000 _4_ AGT  --- 106 tcp 1460 [0 0 0 0] ------- [4194305:1 0:1 32 0] [0 0] 0 0
r 218.046207754 _4_ AGT  --- 107 ack 40 [13a 2 3 800] ------- [0:1 4194305:1 28 4194305] [0 0] 2 0
s 218.046207754 _4_ AGT  --- 108 tcp 1460 [0 0 0 0] ------- [4194305:1 0:1 32 0] [1 0] 0 0
s 218.046207754 _4_ AGT  --- 109 tcp 1460 [0 0 0 0] ------- [4194305:1 0:1 32 0] [2 0] 0 0
r 218.104479634 _4_ AGT  --- 110 ack 40 [13a 2 3 800] ------- [0:1 4194305:1 28 4194305] [1 0] 2 0
s 218.104479634 _4_ AGT  --- 111 tcp 1460 [0 0 0 0] ------- [4194305:1 0:1 32 0] [3 0] 0 0
r 218.135373163 _4_ AGT  --- 112 ack 40 [13a 2 3 800] ------- [0:1 4194305:1 28 4194305] [2 0] 2 0
s 218.135373163 _4_ AGT  --- 113 tcp 1460 [0 0 0 0] ------- [4194305:1 0:1 32 0] [4 0] 0 0
r 218.166006691 _4_ AGT  --- 114 ack 40 [13a 2 3 800] ------- [0:1 4194305:1 28 4194305] [3 0] 2 0
s 218.166006691 _4_ AGT  --- 115 tcp 1460 [0 0 0 0] ------- [4194305:1 0:1 32 0] [5 0] 0 0
s 218.166006691 _4_ AGT  --- 116 tcp 1460 [0 0 0 0] ------- [4194305:1 0:1 32 0] [6 0] 0 0
r 218.196680219 _4_ AGT  --- 117 ack 40 [13a 2 3 800] ------- [0:1 4194305:1 28 4194305] [4 0] 2 0
s 218.196680219 _4_ AGT  --- 118 tcp 1460 [0 0 0 0] ------- [4194305:1 0:1 32 0] [7 0] 0 0
r 218.256660622 _4_ AGT  --- 119 ack 40 [13a 2 3 800] ------- [0:1 4194305:1 28 4194305] [5 0] 2 0
s 218.256660622 _4_ AGT  --- 121 tcp 1460 [0 0 0 0] ------- [4194305:1 0:1 32 0] [8 0] 0 0
r 218.272237460 _4_ AGT  --- 120 ack 40 [13a 2 3 800] ------- [0:1 4194305:1 28 4194305] [6 0] 2 0
s 218.272237460 _4_ AGT  --- 123 tcp 1460 [0 0 0 0] ------- [4194305:1 0:1 32 0] [9 0] 0 0
s 218.272237460 _4_ AGT  --- 124 tcp 1460 [0 0 0 0] ------- [4194305:1 0:1 32 0] [10 0] 0 0
r 218.333806385 _4_ AGT  --- 122 ack 40 [13a 2 3 800] ------- [0:1 4194305:1 28 4194305] [7 0] 2 0
s 218.333806385 _4_ AGT  --- 127 tcp 1460 [0 0 0 0] ------- [4194305:1 0:1 32 0] [11 0] 0 0
r 218.335625611 _4_ AGT  --- 125 ack 40 [13a 2 3 800] ------- [0:1 4194305:1 28 4194305] [8 0] 2 0
s 218.335625611 _4_ AGT  --- 128 tcp 1460 [0 0 0 0] ------- [4194305:1 0:1 32 0] [12 0] 0 0
r 218.378220802 _4_ AGT  --- 126 ack 40 [13a 2 3 800] ------- [0:1 4194305:1 28 4194305] [9 0] 2 0
s 218.378220802 _4_ AGT  --- 129 tcp 1460 [0 0 0 0] ------- [4194305:1 0:1 32 0] [13 0] 0 0
r 218.439787709 _4_ AGT  --- 130 ack 40 [13a 2 3 800] ------- [0:1 4194305:1 28 4194305] [10 0] 2 0
s 218.439787709 _4_ AGT  --- 133 tcp 1460 [0 0 0 0] ------- [4194305:1 0:1 32 0] [14 0] 0 0
r 218.455384548 _4_ AGT  --- 131 ack 40 [13a 2 3 800] ------- [0:1 4194305:1 28 4194305] [11 0] 2 0
s 218.455384548 _4_ AGT  --- 135 tcp 1460 [0 0 0 0] ------- [4194305:1 0:1 32 0] [15 0] 0 0
s 218.455384548 _4_ AGT  --- 136 tcp 1460 [0 0 0 0] ------- [4194305:1 0:1 32 0] [16 0] 0 0
r 218.471001386 _4_ AGT  --- 132 ack 40 [13a 2 3 800] ------- [0:1 4194305:1 28 4194305] [12 0] 2 0
s 218.471001386 _4_ AGT  --- 137 tcp 1460 [0 0 0 0] ------- [4194305:1 0:1 32 0] [17 0] 0 0
r 218.546036915 _4_ AGT  --- 134 ack 40 [13a 2 3 800] ------- [0:1 4194305:1 28 4194305] [13 0] 2 0
s 218.546036915 _4_ AGT  --- 140 tcp 1460 [0 0 0 0] ------- [4194305:1 0:1 32 0] [18 0] 0 0
r 218.577081403 _4_ AGT  --- 138 ack 40 [13a 2 3 800] ------- [0:1 4194305:1 28 4194305] [14 0] 2 0
s 218.577081403 _4_ AGT  --- 142 tcp 1460 [0 0 0 0] ------- [4194305:1 0:1 32 0] [19 0] 0 0
r 218.578980628 _4_ AGT  --- 139 ack 40 [13a 2 3 800] ------- [0:1 4194305:1 28 4194305] [15 0] 2 0
s 218.578980628 _4_ AGT  --- 143 tcp 1460 [0 0 0 0] ------- [4194305:1 0:1 32 0] [20 0] 0 0
r 218.625271300 _4_ AGT  --- 141 ack 40 [13a 2 3 800] ------- [0:1 4194305:1 28 4194305] [16 0] 2 0
s 218.625271300 _4_ AGT  --- 146 tcp 1460 [0 0 0 0] ------- [4194305:1 0:1 32 0] [21 0] 0 0
s 218.625271300 _4_ AGT  --- 147 tcp 1460 [0 0 0 0] ------- [4194305:1 0:1 32 0] [22 0] 0 0
r 218.640609652 _4_ AGT  --- 144 ack 40 [13a 2 3 800] ------- [0:1 4194305:1 28 4194305] [17 0] 2 0
s 218.640609652 _4_ AGT  --- 148 tcp 1460 [0 0 0 0] ------- [4194305:1 0:1 32 0] [23 0] 0 0
r 218.682844843 _4_ AGT  --- 145 ack 40 [13a 2 3 800] ------- [0:1 4194305:1 28 4194305] [18 0] 2 0
s 218.682844843 _4_ AGT  --- 150 tcp 1460 [0 0 0 0] ------- [4194305:1 0:1 32 0] [24 0] 0 0
r 218.758281935 _4_ AGT  --- 149 ack 40 [13a 2 3 800] ------- [0:1 4194305:1 28 4194305] [19 0] 2 0
s 218.758281935 _4_ AGT  --- 155 tcp 1460 [0 0 0 0] ------- [4194305:1 0:1 32 0] [25 0] 0 0
r 218.760221161 _4_ AGT  --- 151 ack 40 [13a 2 3 800] ------- [0:1 4194305:1 28 4194305] [20 0] 2 0
s 218.760221161 _4_ AGT  --- 156 tcp 1460 [0 0 0 0] ------- [4194305:1 0:1 32 0] [26 0] 0 0
r 218.762000387 _4_ AGT  --- 152 ack 40 [13a 2 3 800] ------- [0:1 4194305:1 28 4194305] [21 0] 2 0
s 218.762000387 _4_ AGT  --- 157 tcp 1460 [0 0 0 0] ------- [4194305:1 0:1 32 0] [27 0] 0 0
r 218.808390605 _4_ AGT  --- 153 ack 40 [13a 2 3 800] ------- [0:1 4194305:1 28 4194305] [22 0] 2 0
s 218.808390605 _4_ AGT  --- 159 tcp 1460 [0 0 0 0] ------- [4194305:1 0:1 32 0] [28 0] 0 0
s 218.808390605 _4_ AGT  --- 160 tcp 1460 [0 0 0 0] ------- [4194305:1 0:1 32 0] [29 0] 0 0
r 218.823607443 _4_ AGT  --- 154 ack 40 [13a 2 3 800] ------- [0:1 4194305:1 28 4194305] [23 0] 2 0
s 218.823607443 _4_ AGT  --- 162 tcp 1460 [0 0 0 0] ------- [4194305:1 0:1 32 0] [30 0] 0 0
r 218.867720098 _4_ AGT  --- 158 ack 40 [13a 2 3 800] ------- [0:1 4194305:1 28 4194305] [24 0] 2 0
s 218.867720098 _4_ AGT  --- 164 tcp 1460 [0 0 0 0] ------- [4194305:1 0:1 32 0] [31 0] 0 0
r 218.980114683 _4_ AGT  --- 161 ack 40 [13a 2 3 800] ------- [0:1 4194305:1 28 4194305] [25 0] 2 0
s 218.980114683 _4_ AGT  --- 169 tcp 1460 [0 0 0 0] ------- [4194305:1 0:1 32 0] [32 0] 0 0
r 219.010959170 _4_ AGT  --- 163 ack 40 [13a 2 3 800] ------- [0:1 4194305:1 28 4194305] [26 0] 2 0
s 219.010959170 _4_ AGT  --- 171 tcp 1460 [0 0 0 0] ------- [4194305:1 0:1 32 0] [33 0] 0 0
r 219.045700347 _4_ AGT  --- 165 ack 40 [13a 2 3 800] ------- [0:1 4194305:1 28 4194305] [27 0] 2 0
s 219.045700347 _4_ AGT  --- 173 tcp 1460 [0 0 0 0] ------- [4194305:1 0:1 32 0] [34 0] 0 0
r 219.047699572 _4_ AGT  --- 166 ack 40 [13a 2 3 800] ------- [0:1 4194305:1 28 4194305] [28 0] 2 0
s 219.047699572 _4_ AGT  --- 174 tcp 1460 [0 0 0 0] ------- [4194305:1 0:1 32 0] [35 0] 0 0
r 219.049478798 _4_ AGT  --- 167 ack 40 [13a 2 3 800] ------- [0:1 4194305:1 28 4194305] [29 0] 2 0
s 219.049478798 _4_ AGT  --- 176 tcp 1460 [0 0 0 0] ------- [4194305:1 0:1 32 0] [36 0] 0 0
r 219.122227822 _4_ AGT  --- 168 ack 40 [13a 2 3 800] ------- [0:1 4194305:1 28 4194305] [30 0] 2 0
s 219.122227822 _4_ AGT  --- 178 tcp 1460 [0 0 0 0] ------- [4194305:1 0:1 32 0] [37 0] 0 0
s 219.122227822 _4_ AGT  --- 179 tcp 1460 [0 0 0 0] ------- [4194305:1 0:1 32 0] [38 0] 0 0
r 219.137746174 _4_ AGT  --- 170 ack 40 [13a 2 3 800] ------- [0:1 4194305:1 28 4194305] [31 0] 2 0
s 219.137746174 _4_ AGT  --- 181 tcp 1460 [0 0 0 0] ------- [4194305:1 0:1 32 0] [39 0] 0 0
r 219.183936846 _4_ AGT  --- 172 ack 40 [13a 2 3 800] ------- [0:1 4194305:1 28 4194305] [32 0] 2 0
s 219.183936846 _4_ AGT  --- 184 tcp 1460 [0 0 0 0] ------- [4194305:1 0:1 32 0] [40 0] 0 0
r 219.185736072 _4_ AGT  --- 175 ack 40 [13a 2 3 800] ------- [0:1 4194305:1 28 4194305] [33 0] 2 0
s 219.185736072 _4_ AGT  --- 185 tcp 1460 [0 0 0 0] ------- [4194305:1 0:1 32 0] [41 0] 0 0
r 219.216580609 _4_ AGT  --- 177 ack 40 [13a 2 3 800] ------- [0:1 4194305:1 28 4194305] [34 0] 2 0
s 219.216580609 _4_ AGT  --- 187 tcp 1460 [0 0 0 0] ------- [4194305:1 0:1 32 0] [42 0] 0 0
r 219.262483349 _4_ AGT  --- 180 ack 40 [13a 2 3 800] ------- [0:1 4194305:1 28 4194305] [35 0] 2 0
s 219.262483349 _4_ AGT  --- 189 tcp 1460 [0 0 0 0] ------- [4194305:1 0:1 32 0] [43 0] 0 0
r 219.279668710 _4_ AGT  --- 182 ack 40 [13a 2 3 800] ------- [0:1 4194305:1 28 4194305] [36 0] 2 0
s 219.279668710 _4_ AGT  --- 191 tcp 1460 [0 0 0 0] ------- [4194305:1 0:1 32 0] [44 0] 0 0
r 219.308484675 _4_ AGT  --- 183 ack 40 [13a 2 3 800] ------- [0:1 4194305:1 28 4194305] [37 0] 2 0
s 219.308484675 _4_ AGT  --- 192 tcp 1460 [0 0 0 0] ------- [4194305:1 0:1 32 0] [45 0] 0 0
r 219.352528437 _4_ AGT  --- 186 ack 40 [13a 2 3 800] ------- [0:1 4194305:1 28 4194305] [38 0] 2 0
s 219.352528437 _4_ AGT  --- 195 tcp 1460 [0 0 0 0] ------- [4194305:1 0:1 32 0] [46 0] 0 0
s 219.352528437 _4_ AGT  --- 196 tcp 1460 [0 0 0 0] ------- [4194305:1 0:1 32 0] [47 0] 0 0
r 219.440784656 _4_ AGT  --- 188 ack 40 [13a 2 3 800] ------- [0:1 4194305:1 28 4194305] [39 0] 2 0
s 219.440784656 _4_ AGT  --- 200 tcp 1460 [0 0 0 0] ------- [4194305:1 0:1 32 0] [48 0] 0 0
r 219.458050017 _4_ AGT  --- 190 ack 40 [13a 2 3 800] ------- [0:1 4194305:1 28 4194305] [40 0] 2 0
s 219.458050017 _4_ AGT  --- 202 tcp 1460 [0 0 0 0] ------- [4194305:1 0:1 32 0] [49 0] 0 0
r 219.473466855 _4_ AGT  --- 193 ack 40 [13a 2 3 800] ------- [0:1 4194305:1 28 4194305] [41 0] 2 0
s 219.473466855 _4_ AGT  --- 203 tcp 1460 [0 0 0 0] ------- [4194305:1 0:1 32 0] [50 0] 0 0
r 219.505870519 _4_ AGT  --- 194 ack 40 [13a 2 3 800] ------- [0:1 4194305:1 28 4194305] [42 0] 2 0
s 219.505870519 _4_ AGT  --- 205 tcp 1460 [0 0 0 0] ------- [4194305:1 0:1 32 0] [51 0] 0 0
r 219.523346434 _4_ AGT  --- 197 ack 40 [13a 2 3 800] ------- [0:1 4194305:1 28 4194305] [43 0] 2 0
s 219.523346434 _4_ AGT  --- 206 tcp 1460 [0 0 0 0] ------- [4194305:1 0:1 32 0] [52 0] 0 0
r 219.525185660 _4_ AGT  --- 198 ack 40 [13a 2 3 800] ------- [0:1 4194305:1 28 4194305] [44 0] 2 0
s 219.525185660 _4_ AGT  --- 207 tcp 1460 [0 0 0 0] ------- [4194305:1 0:1 32 0] [53 0] 0 0
r 219.573135458 _4_ AGT  --- 199 ack 40 [13a 2 3 800] ------- [0:1 4194305:1 28 4194305] [45 0] 2 0
s 219.573135458 _4_ AGT  --- 210 tcp 1460 [0 0 0 0] ------- [4194305:1 0:1 32 0] [54 0] 0 0
r 219.588573810 _4_ AGT  --- 201 ack 40 [13a 2 3 800] ------- [0:1 4194305:1 28 4194305] [46 0] 2 0
s 219.588573810 _4_ AGT  --- 211 tcp 1460 [0 0 0 0] ------- [4194305:1 0:1 32 0] [55 0] 0 0
r 219.605979171 _4_ AGT  --- 204 ack 40 [13a 2 3 800] ------- [0:1 4194305:1 28 4194305] [47 0] 2 0
s 219.605979171 _4_ AGT  --- 213 tcp 1460 [0 0 0 0] ------- [4194305:1 0:1 32 0] [56 0] 0 0
r 219.607898397 _4_ AGT  --- 208 ack 40 [13a 2 3 800] ------- [0:1 4194305:1 28 4194305] [48 0] 2 0
s 219.607898397 _4_ AGT  --- 214 tcp 1460 [0 0 0 0] ------- [4194305:1 0:1 32 0] [57 0] 0 0
s 219.607898397 _4_ AGT  --- 215 tcp 1460 [0 0 0 0] ------- [4194305:1 0:1 32 0] [58 0] 0 0
r 219.667828195 _4_ AGT  --- 209 ack 40 [13a 2 3 800] ------- [0:1 4194305:1 28 4194305] [49 0] 2 0
s 219.667828195 _4_ AGT  --- 217 tcp 1460 [0 0 0 0] ------- [4194305:1 0:1 32 0] [59 0] 0 0
r 219.683026547 _4_ AGT  --- 212 ack 40 [13a 2 3 800] ------- [0:1 4194305:1 28 4194305] [50 0] 2 0
s 219.683026547 _4_ AGT  --- 219 tcp 1460 [0 0 0 0] ------- [4194305:1 0:1 32 0] [60 0] 0 0
r 219.729278427 _4_ AGT  --- 216 ack 40 [13a 2 3 800] ------- [0:1 4194305:1 28 4194305] [51 0] 2 0
s 219.729278427 _4_ AGT  --- 221 tcp 1460 [0 0 0 0] ------- [4194305:1 0:1 32 0] [61 0] 0 0
r 219.814938759 _4_ AGT  --- 218 ack 40 [13a 2 3 800] ------- [0:1 4194305:1 28 4194305] [52 0] 2 0
s 219.814938759 _4_ AGT  --- 225 tcp 1460 [0 0 0 0] ------- [4194305:1 0:1 32 0] [62 0] 0 0
r 219.830155598 _4_ AGT  --- 220 ack 40 [13a 2 3 800] ------- [0:1 4194305:1 28 4194305] [53 0] 2 0
s 219.830155598 _4_ AGT  --- 227 tcp 1460 [0 0 0 0] ------- [4194305:1 0:1 32 0] [63 0] 0 0
r 219.923845515 _4_ AGT  --- 222 ack 40 [13a 2 3 800] ------- [0:1 4194305:1 28 4194305] [54 0] 2 0
s 219.923845515 _4_ AGT  --- 231 tcp 1460 [0 0 0 0] ------- [4194305:1 0:1 32 0] [64 0] 0 0
r 219.970384170 _4_ AGT  --- 224 ack 40 [13a 2 3 800] ------- [0:1 4194305:1 28 4194305] [55 0] 2 0
s 219.970384170 _4_ AGT  --- 234 tcp 1460 [0 0 0 0] ------- [4194305:1 0:1 32 0] [65 0] 0 0
r 219.972323395 _4_ AGT  --- 226 ack 40 [13a 2 3 800] ------- [0:1 4194305:1 28 4194305] [56 0] 2 0
s 219.972323395 _4_ AGT  --- 235 tcp 1460 [0 0 0 0] ------- [4194305:1 0:1 32 0] [66 0] 0 0
r 220.000879360 _4_ AGT  --- 228 ack 40 [13a 2 3 800] ------- [0:1 4194305:1 28 4194305] [57 0] 2 0
s 220.000879360 _4_ AGT  --- 237 tcp 1460 [0 0 0 0] ------- [4194305:1 0:1 32 0] [67 0] 0 0
r 220.017984721 _4_ AGT  --- 229 ack 40 [13a 2 3 800] ------- [0:1 4194305:1 28 4194305] [58 0] 2 0
s 220.017984721 _4_ AGT  --- 239 tcp 1460 [0 0 0 0] ------- [4194305:1 0:1 32 0] [68 0] 0 0
s 220.017984721 _4_ AGT  --- 240 tcp 1460 [0 0 0 0] ------- [4194305:1 0:1 32 0] [69 0] 0 0
r 220.033461560 _4_ AGT  --- 230 ack 40 [13a 2 3 800] ------- [0:1 4194305:1 28 4194305] [59 0] 2 0
s 220.033461560 _4_ AGT  --- 241 tcp 1460 [0 0 0 0] ------- [4194305:1 0:1 32 0] [70 0] 0 0
r 220.064286096 _4_ AGT  --- 232 ack 40 [13a 2 3 800] ------- [0:1 4194305:1 28 4194305] [60 0] 2 0
s 220.064286096 _4_ AGT  --- 243 tcp 1460 [0 0 0 0] ------- [4194305:1 0:1 32 0] [71 0] 0 0
r 220.106841188 _4_ AGT  --- 233 ack 40 [13a 2 3 800] ------- [0:1 4194305:1 28 4194305] [61 0] 2 0
s 220.106841188 _4_ AGT  --- 245 tcp 1460 [0 0 0 0] ------- [4194305:1 0:1 32 0] [72 0] 0 0
r 220.137984684 _4_ AGT  --- 236 ack 40 [13a 2 3 800] ------- [0:1 4194305:1 28 4194305] [62 0] 2 0
s 220.137984684 _4_ AGT  --- 248 tcp 1460 [0 0 0 0] ------- [4194305:1 0:1 32 0] [73 0] 0 0
r 220.199244262 _4_ AGT  --- 238 ack 40 [13a 2 3 800] ------- [0:1 4194305:1 28 4194305] [63 0] 2 0
s 220.199244262 _4_ AGT  --- 251 tcp 1460 [0 0 0 0] ------- [4194305:1 0:1 32 0] [74 0] 0 0
r 220.229968750 _4_ AGT  --- 242 ack 40 [13a 2 3 800] ------- [0:1 4194305:1 28 4194305] [64 0] 2 0
s 220.229968750 _4_ AGT  --- 252 tcp 1460 [0 0 0 0] ------- [4194305:1 0:1 32 0] [75 0] 0 0
r 220.249033237 _4_ AGT  --- 244 ack 40 [13a 2 3 800] ------- [0:1 4194305:1 28 4194305] [65 0] 2 0
s 220.249033237 _4_ AGT  --- 254 tcp 1460 [0 0 0 0] ------- [4194305:1 0:1 32 0] [76 0] 0 0
r 220.264530075 _4_ AGT  --- 246 ack 40 [13a 2 3 800] ------- [0:1 4194305:1 28 4194305] [66 0] 2 0
s 220.264530075 _4_ AGT  --- 255 tcp 1460 [0 0 0 0] ------- [4194305:1 0:1 32 0] [77 0] 0 0
r 220.325918950 _4_ AGT  --- 247 ack 40 [13a 2 3 800] ------- [0:1 4194305:1 28 4194305] [67 0] 2 0
s 220.325918950 _4_ AGT  --- 259 tcp 1460 [0 0 0 0] ------- [4194305:1 0:1 32 0] [78 0] 0 0
r 220.370102713 _4_ AGT  --- 249 ack 40 [13a 2 3 800] ------- [0:1 4194305:1 28 4194305] [68 0] 2 0
s 220.370102713 _4_ AGT  --- 261 tcp 1460 [0 0 0 0] ------- [4194305:1 0:1 32 0] [79 0] 0 0
r 220.372041939 _4_ AGT  --- 250 ack 40 [13a 2 3 800] ------- [0:1 4194305:1 28 4194305] [69 0] 2 0
s 220.372041939 _4_ AGT  --- 262 tcp 1460 [0 0 0 0] ------- [4194305:1 0:1 32 0] [80 0] 0 0
r 220.402555467 _4_ AGT  --- 253 ack 40 [13a 2 3 800] ------- [0:1 4194305:1 28 4194305] [70 0] 2 0
s 220.402555467 _4_ AGT  --- 263 tcp 1460 [0 0 0 0] ------- [4194305:1 0:1 32 0] [81 0] 0 0
s 220.402555467 _4_ AGT  --- 264 tcp 1460 [0 0 0 0] ------- [4194305:1 0:1 32 0] [82 0] 0 0
r 220.404414693 _4_ AGT  --- 256 ack 40 [13a 2 3 800] ------- [0:1 4194305:1 28 4194305] [71 0] 2 0
s 220.404414693 _4_ AGT  --- 265 tcp 1460 [0 0 0 0] ------- [4194305:1 0:1 32 0] [83 0] 0 0
r 220.477253866 _4_ AGT  --- 257 ack 40 [13a 2 3 800] ------- [0:1 4194305:1 28 4194305] [72 0] 2 0
s 220.477253866 _4_ AGT  --- 267 tcp 1460 [0 0 0 0] ------- [4194305:1 0:1 32 0] [84 0] 0 0
r 220.479293091 _4_ AGT  --- 258 ack 40 [13a 2 3 800] ------- [0:1 4194305:1 28 4194305] [73 0] 2 0
s 220.479293091 _4_ AGT  --- 268 tcp 1460 [0 0 0 0] ------- [4194305:1 0:1 32 0] [85 0] 0 0
r 220.554450184 _4_ AGT  --- 260 ack 40 [13a 2 3 800] ------- [0:1 4194305:1 28 4194305] [74 0] 2 0
s 220.554450184 _4_ AGT  --- 272 tcp 1460 [0 0 0 0] ------- [4194305:1 0:1 32 0] [86 0] 0 0
r 220.585123712 _4_ AGT  --- 266 ack 40 [13a 2 3 800] ------- [0:1 4194305:1 28 4194305] [75 0] 2 0
s 220.585123712 _4_ AGT  --- 274 tcp 1460 [0 0 0 0] ------- [4194305:1 0:1 32 0] [87 0] 0 0
r 220.660349746 _4_ AGT  --- 269 ack 40 [13a 2 3 800] ------- [0:1 4194305:1 28 4194305] [76 0] 2 0
s 220.660349746 _4_ AGT  --- 279 tcp 1460 [0 0 0 0] ------- [4194305:1 0:1 32 0] [88 0] 0 0
r 220.662188972 _4_ AGT  --- 270 ack 40 [13a 2 3 800] ------- [0:1 4194305:1 28 4194305] [77 0] 2 0
s 220.662188972 _4_ AGT  --- 280 tcp 1460 [0 0 0 0] ------- [4194305:1 0:1 32 0] [89 0] 0 0
r 220.693093459 _4_ AGT  --- 271 ack 40 [13a 2 3 800] ------- [0:1 4194305:1 28 4194305] [78 0] 2 0
s 220.693093459 _4_ AGT  --- 282 tcp 1460 [0 0 0 0] ------- [4194305:1 0:1 32 0] [90 0] 0 0
r 220.725546114 _4_ AGT  --- 273 ack 40 [13a 2 3 800] ------- [0:1 4194305:1 28 4194305] [79 0] 2 0
s 220.725546114 _4_ AGT  --- 284 tcp 1460 [0 0 0 0] ------- [4194305:1 0:1 32 0] [91 0] 0 0
r 220.769938868 _4_ AGT  --- 275 ack 40 [13a 2 3 800] ------- [0:1 4194305:1 28 4194305] [80 0] 2 0
s 220.769938868 _4_ AGT  --- 286 tcp 1460 [0 0 0 0] ------- [4194305:1 0:1 32 0] [92 0] 0 0
r 220.787384228 _4_ AGT  --- 276 ack 40 [13a 2 3 800] ------- [0:1 4194305:1 28 4194305] [81 0] 2 0
s 220.787384228 _4_ AGT  --- 288 tcp 1460 [0 0 0 0] ------- [4194305:1 0:1 32 0] [93 0] 0 0
r 220.802581067 _4_ AGT  --- 277 ack 40 [13a 2 3 800] ------- [0:1 4194305:1 28 4194305] [82 0] 2 0
s 220.802581067 _4_ AGT  --- 289 tcp 1460 [0 0 0 0] ------- [4194305:1 0:1 32 0] [94 0] 0 0
s 220.802581067 _4_ AGT  --- 290 tcp 1460 [0 0 0 0] ------- [4194305:1 0:1 32 0] [95 0] 0 0
r 220.817859419 _4_ AGT  --- 278 ack 40 [13a 2 3 800] ------- [0:1 4194305:1 28 4194305] [83 0] 2 0
s 220.817859419 _4_ AGT  --- 291 tcp 1460 [0 0 0 0] ------- [4194305:1 0:1 32 0] [96 0] 0 0
r 220.848643906 _4_ AGT  --- 281 ack 40 [13a 2 3 800] ------- [0:1 4194305:1 28 4194305] [84 0] 2 0
s 220.848643906 _4_ AGT  --- 293 tcp 1460 [0 0 0 0] ------- [4194305:1 0:1 32 0] [97 0] 0 0
r 220.864100745 _4_ AGT  --- 283 ack 40 [13a 2 3 800] ------- [0:1 4194305:1 28 4194305] [85 0] 2 0
s 220.864100745 _4_ AGT  --- 295 tcp 1460 [0 0 0 0] ------- [4194305:1 0:1 32 0] [98 0] 0 0
r 220.896374913 _4_ AGT  --- 285 ack 40 [13a 2 3 800] ------- [0:1 4194305:1 28 4194305] [86 0] 2 0
s 220.896374913 _4_ AGT  --- 297 tcp 1460 [0 0 0 0] ------- [4194305:1 0:1 32 0] [99 0] 0 0
r 220.927499400 _4_ AGT  --- 287 ack 40 [13a 2 3 800] ------- [0:1 4194305:1 28 4194305] [87 0] 2 0
s 220.927499400 _4_ AGT  --- 299 tcp 1460 [0 0 0 0] ------- [4194305:1 0:1 32 0] [100 0] 0 0
r 220.998459902 _4_ AGT  --- 292 ack 40 [13a 2 3 800] ------- [0:1 4194305:1 28 4194305] [88 0] 2 0
s 220.998459902 _4_ AGT  --- 303 tcp 1460 [0 0 0 0] ------- [4194305:1 0:1 32 0] [101 0] 0 0
r 221.044831783 _4_ AGT  --- 294 ack 40 [13a 2 3 800] ------- [0:1 4194305:1 28 4194305] [89 0] 2 0
s 221.044831783 _4_ AGT  --- 304 tcp 1460 [0 0 0 0] ------- [4194305:1 0:1 32 0] [102 0] 0 0
r 221.046771008 _4_ AGT  --- 296 ack 40 [13a 2 3 800] ------- [0:1 4194305:1 28 4194305] [90 0] 2 0
s 221.046771008 _4_ AGT  --- 305 tcp 1460 [0 0 0 0] ------- [4194305:1 0:1 32 0] [103 0] 0 0
r 221.075566973 _4_ AGT  --- 298 ack 40 [13a 2 3 800] ------- [0:1 4194305:1 28 4194305] [91 0] 2 0
s 221.075566973 _4_ AGT  --- 307 tcp 1460 [0 0 0 0] ------- [4194305:1 0:1 32 0] [104 0] 0 0
r 221.107999628 _4_ AGT  --- 300 ack 40 [13a 2 3 800] ------- [0:1 4194305:1 28 4194305] [92 0] 2 0
s 221.107999628 _4_ AGT  --- 309 tcp 1460 [0 0 0 0] ------- [4194305:1 0:1 32 0] [105 0] 0 0
r 221.181288099 _4_ AGT  --- 301 ack 40 [13a 2 3 800] ------- [0:1 4194305:1 28 4194305] [93 0] 2 0
s 221.181288099 _4_ AGT  --- 314 tcp 1460 [0 0 0 0] ------- [4194305:1 0:1 32 0] [106 0] 0 0
r 221.217046738 _4_ AGT  --- 302 ack 40 [13a 2 3 800] ------- [0:1 4194305:1 28 4194305] [94 0] 2 0
s 221.217046738 _4_ AGT  --- 316 tcp 1460 [0 0 0 0] ------- [4194305:1 0:1 32 0] [107 0] 0 0
r 221.261719393 _4_ AGT  --- 306 ack 40 [13a 2 3 800] ------- [0:1 4194305:1 28 4194305] [95 0] 2 0
s 221.261719393 _4_ AGT  --- 318 tcp 1460 [0 0 0 0] ------- [4194305:1 0:1 32 0] [108 0] 0 0
s 221.261719393 _4_ AGT  --- 319 tcp 1460 [0 0 0 0] ------- [4194305:1 0:1 32 0] [109 0] 0 0
r 221.292393375 _4_ AGT  --- 308 ack 40 [13a 2 3 800] ------- [0:1 4194305:1 28 4194305] [96 0] 2 0
s 221.292393375 _4_ AGT  --- 321 tcp 1460 [0 0 0 0] ------- [4194305:1 0:1 32 0] [110 0] 0 0
r 221.321334349 _4_ AGT  --- 310 ack 40 [13a 2 3 800] ------- [0:1 4194305:1 28 4194305] [97 0] 2 0
s 221.321334349 _4_ AGT  --- 323 tcp 1460 [0 0 0 0] ------- [4194305:1 0:1 32 0] [111 0] 0 0
r 221.336851187 _4_ AGT  --- 311 ack 40 [13a 2 3 800] ------- [0:1 4194305:1 28 4194305] [98 0] 2 0
s 221.336851187 _4_ AGT  --- 324 tcp 1460 [0 0 0 0] ------- [4194305:1 0:1 32 0] [112 0] 0 0
r 221.352228026 _4_ AGT  --- 312 ack 40 [13a 2 3 800] ------- [0:1 4194305:1 28 4194305] [99 0] 2 0
s 221.352228026 _4_ AGT  --- 325 tcp 1460 [0 0 0 0] ------- [4194305:1 0:1 32 0] [113 0] 0 0
r 221.383032513 _4_ AGT  --- 313 ack 40 [13a 2 3 800] ------- [0:1 4194305:1 28 4194305] [100 0] 2 0
s 221.383032513 _4_ AGT  --- 326 tcp 1460 [0 0 0 0] ------- [4194305:1 0:1 32 0] [114 0] 0 0
r 221.400568428 _4_ AGT  --- 315 ack 40 [13a 2 3 800] ------- [0:1 4194305:1 28 4194305] [101 0] 2 0
s 221.400568428 _4_ AGT  --- 328 tcp 1460 [0 0 0 0] ------- [4194305:1 0:1 32 0] [115 0] 0 0
r 221.416246781 _4_ AGT  --- 317 ack 40 [13a 2 3 800] ------- [0:1 4194305:1 28 4194305] [102 0] 2 0
s 221.416246781 _4_ AGT  --- 330 tcp 1460 [0 0 0 0] ------- [4194305:1 0:1 32 0] [116 0] 0 0
r 221.463985975 _4_ AGT  --- 320 ack 40 [13a 2 3 800] ------- [0:1 4194305:1 28 4194305] [103 0] 2 0
s 221.463985975 _4_ AGT  --- 333 tcp 1460 [0 0 0 0] ------- [4194305:1 0:1 32 0] [117 0] 0 0
r 221.568764246 _4_ AGT  --- 322 ack 40 [13a 2 3 800] ------- [0:1 4194305:1 28 4194305] [104 0] 2 0
s 221.568764246 _4_ AGT  --- 338 tcp 1460 [0 0 0 0] ------- [4194305:1 0:1 32 0] [118 0] 0 0
r 221.571023472 _4_ AGT  --- 327 ack 40 [13a 2 3 800] ------- [0:1 4194305:1 28 4194305] [105 0] 2 0
s 221.571023472 _4_ AGT  --- 339 tcp 1460 [0 0 0 0] ------- [4194305:1 0:1 32 0] [119 0] 0 0
r 221.615536581 _4_ AGT  --- 329 ack 40 [13a 2 3 800] ------- [0:1 4194305:1 28 4194305] [106 0] 2 0
s 221.615536581 _4_ AGT  --- 341 tcp 1460 [0 0 0 0] ------- [4194305:1 0:1 32 0] [120 0] 0 0
r 221.632801941 _4_ AGT  --- 331 ack 40 [13a 2 3 800] ------- [0:1 4194305:1 28 4194305] [107 0] 2 0
s 221.632801941 _4_ AGT  --- 343 tcp 1460 [0 0 0 0] ------- [4194305:1 0:1 32 0] [121 0] 0 0
r 221.648320294 _4_ AGT  --- 332 ack 40 [13a 2 3 800] ------- [0:1 4194305:1 28 4194305] [108 0] 2 0
s 221.648320294 _4_ AGT  --- 344 tcp 1460 [0 0 0 0] ------- [4194305:1 0:1 32 0] [122 0] 0 0
r 221.678833822 _4_ AGT  --- 334 ack 40 [13a 2 3 800] ------- [0:1 4194305:1 28 4194305] [109 0] 2 0
s 221.678833822 _4_ AGT  --- 346 tcp 1460 [0 0 0 0] ------- [4194305:1 0:1 32 0] [123 0] 0 0
r 221.696079183 _4_ AGT  --- 335 ack 40 [13a 2 3 800] ------- [0:1 4194305:1 28 4194305] [110 0] 2 0
s 221.696079183 _4_ AGT  --- 348 tcp 1460 [0 0 0 0] ------- [4194305:1 0:1 32 0] [124 0] 0 0
s 221.696079183 _4_ AGT  --- 349 tcp 1460 [0 0 0 0] ------- [4194305:1 0:1 32 0] [125 0] 0 0
r 221.725095148 _4_ AGT  --- 336 ack 40 [13a 2 3 800] ------- [0:1 4194305:1 28 4194305] [111 0] 2 0
s 221.725095148 _4_ AGT  --- 350 tcp 1460 [0 0 0 0] ------- [4194305:1 0:1 32 0] [126 0] 0 0
r 221.726874373 _4_ AGT  --- 337 ack 40 [13a 2 3 800] ------- [0:1 4194305:1 28 4194305] [112 0] 2 0
s 221.726874373 _4_ AGT  --- 351 tcp 1460 [0 0 0 0] ------- [4194305:1 0:1 32 0] [127 0] 0 0
r 221.759006473 _4_ AGT  --- 340 ack 40 [13a 2 3 800] ------- [0:1 4194305:1 28 4194305] [113 0] 2 0
s 221.759006473 _4_ AGT  --- 353 tcp 1460 [0 0 0 0] ------- [4194305:1 0:1 32 0] [128 0] 0 0
r 221.818445313 _4_ AGT  --- 342 ack 40 [13a 2 3 800] ------- [0:1 4194305:1 28 4194305] [114 0] 2 0
s 221.818445313 _4_ AGT  --- 356 tcp 1460 [0 0 0 0] ------- [4194305:1 0:1 32 0] [129 0] 0 0
r 221.876057292 _4_ AGT  --- 345 ack 40 [13a 2 3 800] ------- [0:1 4194305:1 28 4194305] [115 0] 2 0
s 221.876057292 _4_ AGT  --- 358 tcp 1460 [0 0 0 0] ------- [4194305:1 0:1 32 0] [130 0] 0 0
r 221.905093257 _4_ AGT  --- 347 ack 40 [13a 2 3 800] ------- [0:1 4194305:1 28 4194305] [116 0] 2 0
s 221.905093257 _4_ AGT  --- 360 tcp 1460 [0 0 0 0] ------- [4194305:1 0:1 32 0] [131 0] 0 0
r 221.949336871 _4_ AGT  --- 352 ack 40 [13a 2 3 800] ------- [0:1 4194305:1 28 4194305] [117 0] 2 0
s 221.949336871 _4_ AGT  --- 365 tcp 1460 [0 0 0 0] ------- [4194305:1 0:1 32 0] [132 0] 0 0
r 221.967434786 _4_ AGT  --- 354 ack 40 [13a 2 3 800] ------- [0:1 4194305:1 28 4194305] [118 0] 2 0
s 221.967434786 _4_ AGT  --- 367 tcp 1460 [0 0 0 0] ------- [4194305:1 0:1 32 0] [133 0] 0 0
r 221.999273459 _4_ AGT  --- 355 ack 40 [13a 2 3 800] ------- [0:1 4194305:1 28 4194305] [119 0] 2 0
s 221.999273459 _4_ AGT  --- 369 tcp 1460 [0 0 0 0] ------- [4194305:1 0:1 32 0] [134 0] 0 0
r 222.078248805 _4_ AGT  --- 357 ack 40 [13a 2 3 800] ------- [0:1 4194305:1 28 4194305] [120 0] 2 0
s 222.078248805 _4_ AGT  --- 373 tcp 1460 [0 0 0 0] ------- [4194305:1 0:1 32 0] [135 0] 0 0
r 222.110901410 _4_ AGT  --- 359 ack 40 [13a 2 3 800] ------- [0:1 4194305:1 28 4194305] [121 0] 2 0
s 222.110901410 _4_ AGT  --- 376 tcp 1460 [0 0 0 0] ------- [4194305:1 0:1 32 0] [136 0] 0 0
r 222.141365996 _4_ AGT  --- 361 ack 40 [13a 2 3 800] ------- [0:1 4194305:1 28 4194305] [122 0] 2 0
s 222.141365996 _4_ AGT  --- 378 tcp 1460 [0 0 0 0] ------- [4194305:1 0:1 32 0] [137 0] 0 0
r 222.156964348 _4_ AGT  --- 364 ack 40 [13a 2 3 800] ------- [0:1 4194305:1 28 4194305] [123 0] 2 0
s 222.156964348 _4_ AGT  --- 379 tcp 1460 [0 0 0 0] ------- [4194305:1 0:1 32 0] [138 0] 0 0
r 222.200877003 _4_ AGT  --- 366 ack 40 [13a 2 3 800] ------- [0:1 4194305:1 28 4194305] [124 0] 2 0
s 222.200877003 _4_ AGT  --- 382 tcp 1460 [0 0 0 0] ------- [4194305:1 0:1 32 0] [139 0] 0 0
r 222.218262364 _4_ AGT  --- 368 ack 40 [13a 2 3 800] ------- [0:1 4194305:1 28 4194305] [125 0] 2 0
s 222.218262364 _4_ AGT  --- 384 tcp 1460 [0 0 0 0] ------- [4194305:1 0:1 32 0] [140 0] 0 0
s 222.218262364 _4_ AGT  --- 385 tcp 1460 [0 0 0 0] ------- [4194305:1 0:1 32 0] [141 0] 0 0
r 222.233659202 _4_ AGT  --- 370 ack 40 [13a 2 3 800] ------- [0:1 4194305:1 28 4194305] [126 0] 2 0
s 222.233659202 _4_ AGT  --- 386 tcp 1460 [0 0 0 0] ------- [4194305:1 0:1 32 0] [142 0] 0 0
r 222.277452410 _4_ AGT  --- 371 ack 40 [13a 2 3 800] ------- [0:1 4194305:1 28 4194305] [127 0] 2 0
s 222.277452410 _4_ AGT  --- 387 tcp 1460 [0 0 0 0] ------- [4194305:1 0:1 32 0] [143 0] 0 0
r 222.279631636 _4_ AGT  --- 372 ack 40 [13a 2 3 800] ------- [0:1 4194305:1 28 4194305] [128 0] 2 0
s 222.279631636 _4_ AGT  --- 388 tcp 1460 [0 0 0 0] ------- [4194305:1 0:1 32 0] [144 0] 0 0
r 222.295148475 _4_ AGT  --- 374 ack 40 [13a 2 3 800] ------- [0:1 4194305:1 28 4194305] [129 0] 2 0
s 222.295148475 _4_ AGT  --- 389 tcp 1460 [0 0 0 0] ------- [4194305:1 0:1 32 0] [145 0] 0 0
r 222.324024539 _4_ AGT  --- 375 ack 40 [13a 2 3 800] ------- [0:1 4194305:1 28 4194305] [130 0] 2 0
s 222.324024539 _4_ AGT  --- 390 tcp 1460 [0 0 0 0] ------- [4194305:1 0:1 32 0] [146 0] 0 0
r 222.355019581 _4_ AGT  --- 377 ack 40 [13a 2 3 800] ------- [0:1 4194305:1 28 4194305] [131 0] 2 0
s 222.355019581 _4_ AGT  --- 392 tcp 1460 [0 0 0 0] ------- [4194305:1 0:1 32 0] [147 0] 0 0
r 222.383775546 _4_ AGT  --- 380 ack 40 [13a 2 3 800] ------- [0:1 4194305:1 28 4194305] [132 0] 2 0
s 222.383775546 _4_ AGT  --- 394 tcp 1460 [0 0 0 0] ------- [4194305:1 0:1 32 0] [148 0] 0 0
r 222.401271461 _4_ AGT  --- 381 ack 40 [13a 2 3 800] ------- [0:1 4194305:1 28 4194305] [133 0] 2 0
s 222.401271461 _4_ AGT  --- 396 tcp 1460 [0 0 0 0] ------- [4194305:1 0:1 32 0] [149 0] 0 0
r 222.461065864 _4_ AGT  --- 383 ack 40 [13a 2 3 800] ------- [0:1 4194305:1 28 4194305] [134 0] 2 0
s 222.461065864 _4_ AGT  --- 400 tcp 1460 [0 0 0 0] ------- [4194305:1 0:1 32 0] [150 0] 0 0
r 222.569623294 _4_ AGT  --- 391 ack 40 [13a 2 3 800] ------- [0:1 4194305:1 28 4194305] [135 0] 2 0
s 222.569623294 _4_ AGT  --- 405 tcp 1460 [0 0 0 0] ------- [4194305:1 0:1 32 0] [151 0] 0 0
r 222.600447781 _4_ AGT  --- 393 ack 40 [13a 2 3 800] ------- [0:1 4194305:1 28 4194305] [136 0] 2 0
s 222.600447781 _4_ AGT  --- 407 tcp 1460 [0 0 0 0] ------- [4194305:1 0:1 32 0] [152 0] 0 0
r 222.615786134 _4_ AGT  --- 395 ack 40 [13a 2 3 800] ------- [0:1 4194305:1 28 4194305] [137 0] 2 0
s 222.615786134 _4_ AGT  --- 409 tcp 1460 [0 0 0 0] ------- [4194305:1 0:1 32 0] [153 0] 0 0
r 222.617765359 _4_ AGT  --- 397 ack 40 [13a 2 3 800] ------- [0:1 4194305:1 28 4194305] [138 0] 2 0
s 222.617765359 _4_ AGT  --- 410 tcp 1460 [0 0 0 0] ------- [4194305:1 0:1 32 0] [154 0] 0 0
r 222.664375577 _4_ AGT  --- 398 ack 40 [13a 2 3 800] ------- [0:1 4194305:1 28 4194305] [139 0] 2 0
s 222.664375577 _4_ AGT  --- 413 tcp 1460 [0 0 0 0] ------- [4194305:1 0:1 32 0] [155 0] 0 0
r 222.679532416 _4_ AGT  --- 399 ack 40 [13a 2 3 800] ------- [0:1 4194305:1 28 4194305] [140 0] 2 0
s 222.679532416 _4_ AGT  --- 415 tcp 1460 [0 0 0 0] ------- [4194305:1 0:1 32 0] [156 0] 0 0