M 0.0 nn:50 x:670 y:670 rp:dsdv
M 0.0 sc:../mobility/scene/scen-670x670-50-600-20-0 cp:../mobility/scene/cbr-50-20-4-512 seed:0.0
M 0.0 prop:Propagation/TwoRayGround ant:Antenna/OmniAntenna
s 22.465028699 _18_ AGT  --- 238 cbr 512 [0 0 0 0] ------- [18:1 20:0 32 0] [0] 0 2
r 22.482008084 _20_ AGT  --- 238 cbr 532 [13a 14 8 800] ------- [18:1 20:0 31 20] [0] 2 2
s 23.789830405 _16_ AGT  --- 241 cbr 512 [0 0 0 0] ------- [16:0 17:0 32 0] [0] 0 1
r 23.798417491 _17_ AGT  --- 241 cbr 532 [13a 11 10 800] ------- [16:0 17:0 32 17] [0] 1 1
s 26.447857413 _18_ AGT  --- 396 cbr 512 [0 0 0 0] ------- [18:1 20:0 32 0] [1] 0 2
r 26.467099106 _20_ AGT  --- 396 cbr 532 [13a 14 19 800] ------- [18:1 20:0 31 20] [1] 2 2
s 26.997576896 _16_ AGT  --- 420 cbr 512 [0 0 0 0] ------- [16:0 17:0 32 0] [1] 0 1
r 27.003166647 _17_ AGT  --- 420 cbr 532 [13a 11 10 800] ------- [16:0 17:0 32 17] [1] 1 1
s 29.031284241 _9_ AGT  --- 449 cbr 512 [0 0 0 0] ------- [9:2 11:0 32 0] [0] 0 2
r 29.048301788 _11_ AGT  --- 449 cbr 532 [13a b 11 800] ------- [9:2 11:0 31 11] [0] 2 2
s 29.286761211 _16_ AGT  --- 452 cbr 512 [0 0 0 0] ------- [16:0 17:0 32 0] [2] 0 1
r 29.292550962 _17_ AGT  --- 452 cbr 532 [13a 11 10 800] ------- [16:0 17:0 32 17] [2] 1 1
s 30.208176370 _13_ AGT  --- 454 cbr 512 [0 0 0 0] ------- [13:2 14:1 32 0] [0] 0 3
r 30.234388351 _14_ AGT  --- 454 cbr 532 [13a e 0 800] ------- [13:2 14:1 30 14] [0] 3 3
s 30.705484324 _18_ AGT  --- 455 cbr 512 [0 0 0 0] ------- [18:1 20:0 32 0] [2] 0 2
r 30.716967739 _20_ AGT  --- 455 cbr 532 [13a 14 19 800] ------- [18:1 20:0 31 20] [2] 2 2
s 31.763104723 _16_ AGT  --- 456 cbr 512 [0 0 0 0] ------- [16:0 17:0 32 0] [3] 0 1
r 31.768634474 _17_ AGT  --- 456 cbr 532 [13a 11 10 800] ------- [16:0 17:0 32 17] [3] 1 1
s 33.150875433 _13_ AGT  --- 457 cbr 512 [0 0 0 0] ------- [13:2 14:1 32 0] [1] 0 3
r 33.168253853 _14_ AGT  --- 457 cbr 532 [13a e 0 800] ------- [13:2 14:1 30 14] [1] 3 3
s 33.364338405 _18_ AGT  --- 458 cbr 512 [0 0 0 0] ------- [18:1 20:0 32 0] [3] 0 2
r 33.376461820 _20_ AGT  --- 458 cbr 532 [13a 14 19 800] ------- [18:1 20:0 31 20] [3] 2 2
s 34.593858439 _16_ AGT  --- 459 cbr 512 [0 0 0 0] ------- [16:0 17:0 32 0] [4] 0 1
r 34.599788190 _17_ AGT  --- 459 cbr 532 [13a 11 10 800] ------- [16:0 17:0 32 17] [4] 1 1
s 34.669638958 _9_ AGT  --- 460 cbr 512 [0 0 0 0] ------- [9:2 11:0 32 0] [1] 0 2
r 34.681422193 _11_ AGT  --- 460 cbr 532 [13a b 11 800] ------- [9:2 11:0 31 11] [1] 2 2
s 36.382295231 _13_ AGT  --- 532 cbr 512 [0 0 0 0] ------- [13:2 14:1 32 0] [2] 0 3
r 36.399593652 _14_ AGT  --- 532 cbr 532 [13a e 0 800] ------- [13:2 14:1 30 14] [2] 3 3
s 37.767084276 _18_ AGT  --- 593 cbr 512 [0 0 0 0] ------- [18:1 20:0 32 0] [4] 0 2
r 37.784144299 _20_ AGT  --- 593 cbr 532 [13a 14 15 800] ------- [18:1 20:0 31 20] [4] 2 2
s 37.953153224 _8_ AGT  --- 595 cbr 512 [0 0 0 0] ------- [8:1 10:0 32 0] [0] 0 2
r 37.970894629 _10_ AGT  --- 595 cbr 532 [13a a 27 800] ------- [8:1 10:0 31 10] [0] 2 2
s 39.927140017 _16_ AGT  --- 658 cbr 512 [0 0 0 0] ------- [16:0 17:0 32 0] [5] 0 1
r 39.932769768 _17_ AGT  --- 658 cbr 532 [13a 11 10 800] ------- [16:0 17:0 32 17] [5] 1 1
s 39.988632337 _9_ AGT  --- 660 cbr 512 [0 0 0 0] ------- [9:2 11:0 32 0] [2] 0 2
r 40.005929799 _11_ AGT  --- 660 cbr 532 [13a b a 800] ------- [9:2 11:0 31 11] [2] 2 2
s 40.851234766 _13_ AGT  --- 669 cbr 512 [0 0 0 0] ------- [13:2 14:1 32 0] [3] 0 3
r 40.869033187 _14_ AGT  --- 669 cbr 532 [13a e 0 800] ------- [13:2 14:1 30 14] [3] 3 3
s 40.917940000 _12_ AGT  --- 670 cbr 512 [0 0 0 0] ------- [12:2 14:0 32 0] [0] 0 2
r 40.935220500 _14_ AGT  --- 670 cbr 532 [13a e 21 800] ------- [12:2 14:0 31 14] [0] 2 2
s 42.853402914 _8_ AGT  --- 675 cbr 512 [0 0 0 0] ------- [8:1 10:0 32 0] [1] 0 2
s 42.861987033 _18_ AGT  --- 676 cbr 512 [0 0 0 0] ------- [18:1 20:0 32 0] [5] 0 2
r 42.865467802 _10_ AGT  --- 675 cbr 532 [13a a 27 800] ------- [8:1 10:0 31 10] [1] 2 2
r 42.877701171 _20_ AGT  --- 676 cbr 532 [13a 14 15 800] ------- [18:1 20:0 31 20] [5] 2 2
s 43.346711664 _16_ AGT  --- 678 cbr 512 [0 0 0 0] ------- [16:0 17:0 32 0] [6] 0 1
r 43.352301415 _17_ AGT  --- 678 cbr 532 [13a 11 10 800] ------- [16:0 17:0 32 17] [6] 1 1
s 43.535070468 _13_ AGT  --- 679 cbr 512 [0 0 0 0] ------- [13:2 14:1 32 0] [4] 0 3
r 43.553248888 _14_ AGT  --- 679 cbr 532 [13a e 0 800] ------- [13:2 14:1 30 14] [4] 3 3
s 45.268318359 _18_ AGT  --- 680 cbr 512 [0 0 0 0] ------- [18:1 20:0 32 0] [6] 0 2
r 45.280122654 _20_ AGT  --- 680 cbr 532 [13a 14 15 800] ------- [18:1 20:0 31 20] [6] 2 2
s 45.882139223 _9_ AGT  --- 681 cbr 512 [0 0 0 0] ------- [9:2 11:0 32 0] [3] 0 2
r 45.894402421 _11_ AGT  --- 681 cbr 532 [13a b a 800] ------- [9:2 11:0 31 11] [3] 2 2
s 46.295719342 _8_ AGT  --- 682 cbr 512 [0 0 0 0] ------- [8:1 10:0 32 0] [2] 0 2
r 46.308004230 _10_ AGT  --- 682 cbr 532 [13a a 27 800] ------- [8:1 10:0 31 10] [2] 2 2
s 46.544629974 _12_ AGT  --- 684 cbr 512 [0 0 0 0] ------- [12:2 14:0 32 0] [1] 0 2
r 46.555974474 _14_ AGT  --- 684 cbr 532 [13a e 21 800] ------- [12:2 14:0 31 14] [1] 2 2
s 47.410311980 _13_ AGT  --- 731 cbr 512 [0 0 0 0] ------- [13:2 14:1 32 0] [5] 0 3
r 47.454216426 _14_ AGT  --- 731 cbr 532 [13a e 0 800] ------- [13:2 14:1 30 14] [5] 3 3
s 47.932810445 _9_ AGT  --- 735 cbr 512 [0 0 0 0] ------- [9:2 11:0 32 0] [4] 0 2
r 47.944293642 _11_ AGT  --- 735 cbr 532 [13a b a 800] ------- [9:2 11:0 31 11] [4] 2 2
s 48.588627794 _18_ AGT  --- 783 cbr 512 [0 0 0 0] ------- [18:1 20:0 32 0] [7] 0 2
r 48.600791817 _20_ AGT  --- 783 cbr 532 [13a 14 8 800] ------- [18:1 20:0 31 20] [7] 2 2
s 48.625776139 _8_ AGT  --- 785 cbr 512 [0 0 0 0] ------- [8:1 10:0 32 0] [3] 0 2
r 48.637621027 _10_ AGT  --- 785 cbr 532 [13a a 27 800] ------- [8:1 10:0 31 10] [3] 2 2
s 48.794938677 _16_ AGT  --- 787 cbr 512 [0 0 0 0] ------- [16:0 17:0 32 0] [7] 0 1
r 48.800628428 _17_ AGT  --- 787 cbr 532 [13a 11 10 800] ------- [16:0 17:0 32 17] [7] 1 1
s 52.010125348 _12_ AGT  --- 833 cbr 512 [0 0 0 0] ------- [12:2 14:0 32 0] [2] 0 2
r 52.021789847 _14_ AGT  --- 833 cbr 532 [13a e 21 800] ------- [12:2 14:0 31 14] [2] 2 2
s 52.111934474 _9_ AGT  --- 834 cbr 512 [0 0 0 0] ------- [9:2 11:0 32 0] [5] 0 2
r 52.123597672 _11_ AGT  --- 834 cbr 532 [13a b a 800] ------- [9:2 11:0 31 11] [5] 2 2
s 52.589155895 _8_ AGT  --- 835 cbr 512 [0 0 0 0] ------- [8:1 10:0 32 0] [4] 0 2
r 52.601240783 _10_ AGT  --- 835 cbr 532 [13a a 27 800] ------- [8:1 10:0 31 10] [4] 2 2
s 52.672357530 _16_ AGT  --- 837 cbr 512 [0 0 0 0] ------- [16:0 17:0 32 0] [8] 0 1
r 52.677967281 _17_ AGT  --- 837 cbr 532 [13a 11 10 800] ------- [16:0 17:0 32 17] [8] 1 1
s 53.348766909 _13_ AGT  --- 838 cbr 512 [0 0 0 0] ------- [13:2 14:1 32 0] [6] 0 3
r 53.376866801 _14_ AGT  --- 838 cbr 532 [13a e 16 800] ------- [13:2 14:1 30 14] [6] 3 3
s 54.302473623 _9_ AGT  --- 840 cbr 512 [0 0 0 0] ------- [9:2 11:0 32 0] [6] 0 2
r 54.313716821 _11_ AGT  --- 840 cbr 532 [13a b a 800] ------- [9:2 11:0 31 11] [6] 2 2
s 54.500016685 _18_ AGT  --- 842 cbr 512 [0 0 0 0] ------- [18:1 20:0 32 0] [8] 0 2
r 54.511940707 _20_ AGT  --- 842 cbr 532 [13a 14 8 800] ------- [18:1 20:0 31 20] [8] 2 2
s 55.134430613 _12_ AGT  --- 844 cbr 512 [0 0 0 0] ------- [12:2 14:0 32 0] [3] 0 2
r 55.145715113 _14_ AGT  --- 844 cbr 532 [13a e 21 800] ------- [12:2 14:0 31 14] [3] 2 2
s 56.921204610 _13_ AGT  --- 846 cbr 512 [0 0 0 0] ------- [13:2 14:1 32 0] [7] 0 3
r 56.938962498 _14_ AGT  --- 846 cbr 532 [13a e 16 800] ------- [13:2 14:1 30 14] [7] 3 3
s 57.030745354 _8_ AGT  --- 847 cbr 512 [0 0 0 0] ------- [8:1 10:0 32 0] [5] 0 2
r 57.042410242 _10_ AGT  --- 847 cbr 532 [13a a 27 800] ------- [8:1 10:0 31 10] [5] 2 2
s 57.102873852 _16_ AGT  --- 848 cbr 512 [0 0 0 0] ------- [16:0 17:0 32 0] [9] 0 1
r 57.117711837 _17_ AGT  --- 848 cbr 532 [13a 11 e 800] ------- [16:0 17:0 31 17] [9] 2 1
s 58.144916463 _9_ AGT  --- 849 cbr 512 [0 0 0 0] ------- [9:2 11:0 32 0] [7] 0 2
r 58.156479661 _11_ AGT  --- 849 cbr 532 [13a b a 800] ------- [9:2 11:0 31 11] [7] 2 2
s 58.300671039 _18_ AGT  --- 850 cbr 512 [0 0 0 0] ------- [18:1 20:0 32 0] [9] 0 2
r 58.312575061 _20_ AGT  --- 850 cbr 532 [13a 14 8 800] ------- [18:1 20:0 31 20] [9] 2 2
s 59.181052120 _13_ AGT  --- 872 cbr 512 [0 0 0 0] ------- [13:2 14:1 32 0] [8] 0 3
r 59.198770008 _14_ AGT  --- 872 cbr 532 [13a e 16 800] ------- [13:2 14:1 30 14] [8] 3 3
s 59.910192585 _8_ AGT  --- 908 cbr 512 [0 0 0 0] ------- [8:1 10:0 32 0] [6] 0 2
r 59.930287976 _10_ AGT  --- 908 cbr 532 [13a a 2f 800] ------- [8:1 10:0 30 10] [6] 3 2
s 60.416526481 _12_ AGT  --- 935 cbr 512 [0 0 0 0] ------- [12:2 14:0 32 0] [4] 0 2
r 60.428610981 _14_ AGT  --- 935 cbr 532 [13a e 21 800] ------- [12:2 14:0 31 14] [4] 2 2
s 62.206428764 _9_ AGT  --- 956 cbr 512 [0 0 0 0] ------- [9:2 11:0 32 0] [8] 0 2
s 62.212455885 _16_ AGT  --- 957 cbr 512 [0 0 0 0] ------- [16:0 17:0 32 0] [10] 0 1
r 62.218111998 _11_ AGT  --- 956 cbr 532 [13a b 11 800] ------- [9:2 11:0 31 11] [8] 2 2
r 62.224230632 _17_ AGT  --- 957 cbr 532 [13a 11 10 800] ------- [16:0 17:0 32 17] [10] 1 1
s 62.460673096 _8_ AGT  --- 960 cbr 512 [0 0 0 0] ------- [8:1 10:0 32 0] [7] 0 2
r 62.478930970 _10_ AGT  --- 960 cbr 532 [13a a 2f 800] ------- [8:1 10:0 30 10] [7] 3 2
s 62.982660625 _18_ AGT  --- 962 cbr 512 [0 0 0 0] ------- [18:1 20:0 32 0] [10] 0 2
r 62.994104648 _20_ AGT  --- 962 cbr 532 [13a 14 8 800] ------- [18:1 20:0 31 20] [10] 2 2
s 64.442860273 _12_ AGT  --- 964 cbr 512 [0 0 0 0] ------- [12:2 14:0 32 0] [5] 0 2
r 64.454884773 _14_ AGT  --- 964 cbr 532 [13a e 21 800] ------- [12:2 14:0 31 14] [5] 2 2
s 64.751743797 _8_ AGT  --- 965 cbr 512 [0 0 0 0] ------- [8:1 10:0 32 0] [8] 0 2
r 64.769801671 _10_ AGT  --- 965 cbr 532 [13a a 2f 800] ------- [8:1 10:0 30 10] [8] 3 2
s 65.086297368 _13_ AGT  --- 967 cbr 512 [0 0 0 0] ------- [13:2 14:1 32 0] [9] 0 3
r 65.104555256 _14_ AGT  --- 967 cbr 532 [13a e 16 800] ------- [13:2 14:1 30 14] [9] 3 3
s 66.096959096 _16_ AGT  --- 969 cbr 512 [0 0 0 0] ------- [16:0 17:0 32 0] [11] 0 1
r 66.102488847 _17_ AGT  --- 969 cbr 532 [13a 11 10 800] ------- [16:0 17:0 32 17] [11] 1 1
s 66.547449136 _12_ AGT  --- 970 cbr 512 [0 0 0 0] ------- [12:2 14:0 32 0] [6] 0 2
r 66.559773636 _14_ AGT  --- 970 cbr 532 [13a e 21 800] ------- [12:2 14:0 31 14] [6] 2 2
s 66.906550423 _9_ AGT  --- 971 cbr 512 [0 0 0 0] ------- [9:2 11:0 32 0] [9] 0 2
r 66.918333657 _11_ AGT  --- 971 cbr 532 [13a b 11 800] ------- [9:2 11:0 31 11] [9] 2 2
s 67.441713939 _18_ AGT  --- 980 cbr 512 [0 0 0 0] ------- [18:1 20:0 32 0] [11] 0 2
r 67.453257961 _20_ AGT  --- 980 cbr 532 [13a 14 8 800] ------- [18:1 20:0 31 20] [11] 2 2
s 68.708185347 _12_ AGT  --- 982 cbr 512 [0 0 0 0] ------- [12:2 14:0 32 0] [7] 0 2
r 68.719969847 _14_ AGT  --- 982 cbr 532 [13a e 21 800] ------- [12:2 14:0 31 14] [7] 2 2
s 69.649646676 _18_ AGT  --- 983 cbr 512 [0 0 0 0] ------- [18:1 20:0 32 0] [12] 0 2
r 69.661550698 _20_ AGT  --- 983 cbr 532 [13a 14 8 800] ------- [18:1 20:0 31 20] [12] 2 2
s 70.329714275 _8_ AGT  --- 990 cbr 512 [0 0 0 0] ------- [8:1 10:0 32 0] [9] 0 2
r 70.383330360 _10_ AGT  --- 990 cbr 532 [13a a 2f 800] ------- [8:1 10:0 30 10] [9] 3 2
s 70.914528093 _13_ AGT  --- 1011 cbr 512 [0 0 0 0] ------- [13:2 14:1 32 0] [10] 0 3
r 70.932105981 _14_ AGT  --- 1011 cbr 532 [13a e 16 800] ------- [13:2 14:1 30 14] [10] 3 3
s 71.210315637 _16_ AGT  --- 1017 cbr 512 [0 0 0 0] ------- [16:0 17:0 32 0] [12] 0 1
r 71.215865388 _17_ AGT  --- 1017 cbr 532 [13a 11 10 800] ------- [16:0 17:0 32 17] [12] 1 1
s 72.138462247 _9_ AGT  --- 1036 cbr 512 [0 0 0 0] ------- [9:2 11:0 32 0] [10] 0 2
r 72.149845482 _11_ AGT  --- 1036 cbr 532 [13a b 11 800] ------- [9:2 11:0 31 11] [10] 2 2
s 72.952189183 _12_ AGT  --- 1046 cbr 512 [0 0 0 0] ------- [12:2 14:0 32 0] [8] 0 2
r 72.963593683 _14_ AGT  --- 1046 cbr 532 [13a e 21 800] ------- [12:2 14:0 31 14] [8] 2 2
s 74.004271639 _8_ AGT  --- 1056 cbr 512 [0 0 0 0] ------- [8:1 10:0 32 0] [10] 0 2
r 74.025686299 _10_ AGT  --- 1056 cbr 532 [13a a 1b 800] ------- [8:1 10:0 30 10] [10] 3 2
s 74.747726715 _18_ AGT  --- 1057 cbr 512 [0 0 0 0] ------- [18:1 20:0 32 0] [13] 0 2
r 74.759250737 _20_ AGT  --- 1057 cbr 532 [13a 14 8 800] ------- [18:1 20:0 31 20] [13] 2 2
s 74.834463994 _16_ AGT  --- 1058 cbr 512 [0 0 0 0] ------- [16:0 17:0 32 0] [13] 0 1
r 74.840033745 _17_ AGT  --- 1058 cbr 532 [13a 11 10 800] ------- [16:0 17:0 32 17] [13] 1 1
s 75.477956243 _19_ AGT  --- 1060 cbr 512 [0 0 0 0] ------- [19:1 20:1 32 0] [0] 0 3
r 75.501569586 _20_ AGT  --- 1060 cbr 532 [13a 14 20 800] ------- [19:1 20:1 30 20] [0] 3 3
s 76.096618500 _13_ AGT  --- 1062 cbr 512 [0 0 0 0] ------- [13:2 14:1 32 0] [11] 0 3
r 76.114536409 _14_ AGT  --- 1062 cbr 532 [13a e 0 800] ------- [13:2 14:1 30 14] [11] 3 3
s 76.416357198 _8_ AGT  --- 1065 cbr 512 [0 0 0 0] ------- [8:1 10:0 32 0] [11] 0 2
r 76.433494997 _10_ AGT  --- 1065 cbr 532 [13a a 1b 800] ------- [8:1 10:0 30 10] [11] 3 2
s 77.517978286 _12_ AGT  --- 1066 cbr 512 [0 0 0 0] ------- [12:2 14:0 32 0] [9] 0 2
r 77.529882786 _14_ AGT  --- 1066 cbr 532 [13a e 21 800] ------- [12:2 14:0 31 14] [9] 2 2
s 77.810053067 _9_ AGT  --- 1067 cbr 512 [0 0 0 0] ------- [9:2 11:0 32 0] [11] 0 2
r 77.821956302 _11_ AGT  --- 1067 cbr 532 [13a b 11 800] ------- [9:2 11:0 31 11] [11] 2 2
s 78.848360028 _16_ AGT  --- 1070 cbr 512 [0 0 0 0] ------- [16:0 17:0 32 0] [14] 0 1
r 78.854069779 _17_ AGT  --- 1070 cbr 532 [13a 11 10 800] ------- [16:0 17:0 32 17] [14] 1 1
s 79.371595438 _2_ AGT  --- 1072 cbr 512 [0 0 0 0] ------- [2:1 3:1 32 0] [0] 0 3
r 79.394347203 _3_ AGT  --- 1072 cbr 532 [13a 3 15 800] ------- [2:1 3:1 30 3] [0] 3 3
s 79.447350283 _19_ AGT  --- 1073 cbr 512 [0 0 0 0] ------- [19:1 20:1 32 0] [1] 0 3
r 79.464788301 _20_ AGT  --- 1073 cbr 532 [13a 14 20 800] ------- [19:1 20:1 30 20] [1] 3 3
s 79.781662709 _18_ AGT  --- 1074 cbr 512 [0 0 0 0] ------- [18:1 20:0 32 0] [14] 0 2
r 79.793406731 _20_ AGT  --- 1074 cbr 532 [13a 14 8 800] ------- [18:1 20:0 31 20] [14] 2 2
s 80.616430971 _13_ AGT  --- 1077 cbr 512 [0 0 0 0] ------- [13:2 14:1 32 0] [12] 0 3
r 80.633788880 _14_ AGT  --- 1077 cbr 532 [13a e 0 800] ------- [13:2 14:1 30 14] [12] 3 3
s 81.412337933 _2_ AGT  --- 1079 cbr 512 [0 0 0 0] ------- [2:1 3:1 32 0] [1] 0 3
r 81.429915342 _3_ AGT  --- 1079 cbr 532 [13a 3 15 800] ------- [2:1 3:1 30 3] [1] 3 3
s 81.521813943 _8_ AGT  --- 1080 cbr 512 [0 0 0 0] ------- [8:1 10:0 32 0] [12] 0 2
r 81.539111741 _10_ AGT  --- 1080 cbr 532 [13a a 1b 800] ------- [8:1 10:0 30 10] [12] 3 2
s 81.925191090 _19_ AGT  --- 1082 cbr 512 [0 0 0 0] ------- [19:1 20:1 32 0] [2] 0 3
r 81.942829108 _20_ AGT  --- 1082 cbr 532 [13a 14 20 800] ------- [19:1 20:1 30 20] [2] 3 3
s 82.814206997 _12_ AGT  --- 1093 cbr 512 [0 0 0 0] ------- [12:2 14:0 32 0] [10] 0 2
r 82.833105729 _14_ AGT  --- 1093 cbr 532 [13a e 1a 800] ------- [12:2 14:0 31 14] [10] 2 2
s 83.373509283 _9_ AGT  --- 1096 cbr 512 [0 0 0 0] ------- [9:2 11:0 32 0] [12] 0 2
r 83.385132518 _11_ AGT  --- 1096 cbr 532 [13a b 11 800] ------- [9:2 11:0 31 11] [12] 2 2
s 83.421564678 _16_ AGT  --- 1097 cbr 512 [0 0 0 0] ------- [16:0 17:0 32 0] [15] 0 1
r 83.427454430 _17_ AGT  --- 1097 cbr 532 [13a 11 10 800] ------- [16:0 17:0 32 17] [15] 1 1
s 83.576278452 _18_ AGT  --- 1098 cbr 512 [0 0 0 0] ------- [18:1 20:0 32 0] [15] 0 2
r 83.590799474 _20_ AGT  --- 1098 cbr 532 [13a 14 d 800] ------- [18:1 20:0 31 20] [15] 2 2
s 83.602217233 _18_ AGT  --- 1099 cbr 512 [0 0 0 0] ------- [18:0 19:0 32 0] [0] 0 3
r 83.634280034 _19_ AGT  --- 1099 cbr 532 [13a 13 21 800] ------- [18:0 19:0 29 19] [0] 4 3
s 83.644134711 _20_ AGT  --- 1101 cbr 512 [0 0 0 0] ------- [20:2 21:0 32 0] [0] 0 1
r 83.649765105 _21_ AGT  --- 1101 cbr 532 [13a 15 14 800] ------- [20:2 21:0 32 21] [0] 1 1
s 83.888527427 _13_ AGT  --- 1103 cbr 512 [0 0 0 0] ------- [13:2 14:1 32 0] [13] 0 3
r 83.906385336 _14_ AGT  --- 1103 cbr 532 [13a e 0 800] ------- [13:2 14:1 30 14] [13] 3 3
s 84.382540580 _2_ AGT  --- 1111 cbr 512 [0 0 0 0] ------- [2:1 3:1 32 0] [2] 0 3
r 84.400457989 _3_ AGT  --- 1111 cbr 532 [13a 3 15 800] ------- [2:1 3:1 30 3] [2] 3 3
s 84.875862303 _8_ AGT  --- 1116 cbr 512 [0 0 0 0] ------- [8:1 10:0 32 0] [13] 0 2
r 84.893779778 _10_ AGT  --- 1116 cbr 532 [13a a 1b 800] ------- [8:1 10:0 30 10] [13] 3 2
s 85.876706513 _18_ AGT  --- 1124 cbr 512 [0 0 0 0] ------- [18:1 20:0 32 0] [16] 0 2
r 85.888129978 _20_ AGT  --- 1124 cbr 532 [13a 14 d 800] ------- [18:1 20:0 31 20] [16] 2 2
s 86.783664804 _16_ AGT  --- 1133 cbr 512 [0 0 0 0] ------- [16:0 17:0 32 0] [16] 0 1
r 86.789614555 _17_ AGT  --- 1133 cbr 532 [13a 11 10 800] ------- [16:0 17:0 32 17] [16] 1 1
s 87.553135336 _18_ AGT  --- 1138 cbr 512 [0 0 0 0] ------- [18:0 19:0 32 0] [1] 0 3
r 87.577007114 _19_ AGT  --- 1138 cbr 532 [13a 13 21 800] ------- [18:0 19:0 29 19] [1] 4 3
s 87.690590732 _13_ AGT  --- 1139 cbr 512 [0 0 0 0] ------- [13:2 14:1 32 0] [14] 0 3
s 87.696158330 _12_ AGT  --- 1140 cbr 512 [0 0 0 0] ------- [12:2 14:0 32 0] [11] 0 2
r 87.708008641 _14_ AGT  --- 1139 cbr 532 [13a e 0 800] ------- [13:2 14:1 30 14] [14] 3 3
r 87.720322069 _14_ AGT  --- 1140 cbr 532 [13a e 1a 800] ------- [12:2 14:0 31 14] [11] 2 2
s 87.872111568 _19_ AGT  --- 1141 cbr 512 [0 0 0 0] ------- [19:1 20:1 32 0] [3] 0 3
r 87.890309586 _20_ AGT  --- 1141 cbr 532 [13a 14 20 800] ------- [19:1 20:1 30 20] [3] 3 3
s 88.450280389 _2_ AGT  --- 1142 cbr 512 [0 0 0 0] ------- [2:1 3:1 32 0] [3] 0 3
r 88.473353303 _3_ AGT  --- 1142 cbr 532 [13a 3 2e 800] ------- [2:1 3:1 30 3] [3] 3 3
s 88.493254114 _20_ AGT  --- 1143 cbr 512 [0 0 0 0] ------- [20:2 21:0 32 0] [1] 0 1
r 88.498804508 _21_ AGT  --- 1143 cbr 532 [13a 15 14 800] ------- [20:2 21:0 32 21] [1] 1 1
s 88.755286319 _18_ AGT  --- 1144 cbr 512 [0 0 0 0] ------- [18:1 20:0 32 0] [17] 0 2
r 88.767329784 _20_ AGT  --- 1144 cbr 532 [13a 14 d 800] ------- [18:1 20:0 31 20] [17] 2 2
s 89.038674354 _9_ AGT  --- 1145 cbr 512 [0 0 0 0] ------- [9:2 11:0 32 0] [13] 0 2
r 89.050577588 _11_ AGT  --- 1145 cbr 532 [13a b 11 800] ------- [9:2 11:0 31 11] [13] 2 2
s 89.566326713 _16_ AGT  --- 1147 cbr 512 [0 0 0 0] ------- [16:0 17:0 32 0] [17] 0 1
r 89.572196465 _17_ AGT  --- 1147 cbr 532 [13a 11 10 800] ------- [16:0 17:0 32 17] [17] 1 1
s 90.739212018 _8_ AGT  --- 1151 cbr 512 [0 0 0 0] ------- [8:1 10:0 32 0] [14] 0 2
r 90.756969493 _10_ AGT  --- 1151 cbr 532 [13a a 1b 800] ------- [8:1 10:0 30 10] [14] 3 2
s 90.811782379 _12_ AGT  --- 1152 cbr 512 [0 0 0 0] ------- [12:2 14:0 32 0] [12] 0 2
r 90.829019835 _14_ AGT  --- 1152 cbr 532 [13a e 1d 800] ------- [12:2 14:0 31 14] [12] 2 2
s 91.201175336 _18_ AGT  --- 1154 cbr 512 [0 0 0 0] ------- [18:0 19:0 32 0] [2] 0 3
r 91.224947114 _19_ AGT  --- 1154 cbr 532 [13a 13 21 800] ------- [18:0 19:0 29 19] [2] 4 3
s 92.079666956 _19_ AGT  --- 1156 cbr 512 [0 0 0 0] ------- [19:1 20:1 32 0] [4] 0 3
r 92.103879368 _20_ AGT  --- 1156 cbr 532 [13a 14 d 800] ------- [19:1 20:1 29 20] [4] 4 3
s 92.622349674 _13_ AGT  --- 1157 cbr 512 [0 0 0 0] ------- [13:2 14:1 32 0] [15] 0 3
r 92.649557870 _14_ AGT  --- 1157 cbr 532 [13a e 1d 800] ------- [13:2 14:1 29 14] [15] 4 3
s 93.339484584 _20_ AGT  --- 1163 cbr 512 [0 0 0 0] ------- [20:2 21:0 32 0] [2] 0 1
r 93.345114977 _21_ AGT  --- 1163 cbr 532 [13a 15 14 800] ------- [20:2 21:0 32 21] [2] 1 1
s 93.348785830 _2_ AGT  --- 1164 cbr 512 [0 0 0 0] ------- [2:1 3:1 32 0] [4] 0 3
r 93.366323259 _3_ AGT  --- 1164 cbr 532 [13a 3 2e 800] ------- [2:1 3:1 30 3] [4] 3 3
s 93.496124052 _18_ AGT  --- 1165 cbr 512 [0 0 0 0] ------- [18:0 19:0 32 0] [3] 0 3
r 93.520055830 _19_ AGT  --- 1165 cbr 532 [13a 13 21 800] ------- [18:0 19:0 29 19] [3] 4 3
s 93.779523214 _9_ AGT  --- 1166 cbr 512 [0 0 0 0] ------- [9:2 11:0 32 0] [14] 0 2
r 93.791106448 _11_ AGT  --- 1166 cbr 532 [13a b 11 800] ------- [9:2 11:0 31 11] [14] 2 2
s 94.353871247 _18_ AGT  --- 1171 cbr 512 [0 0 0 0] ------- [18:1 20:0 32 0] [18] 0 2
r 94.365314712 _20_ AGT  --- 1171 cbr 532 [13a 14 d 800] ------- [18:1 20:0 31 20] [18] 2 2
s 95.224935345 _16_ AGT  --- 1175 cbr 512 [0 0 0 0] ------- [16:0 17:0 32 0] [18] 0 1
r 95.230985096 _17_ AGT  --- 1175 cbr 532 [13a 11 10 800] ------- [16:0 17:0 32 17] [18] 1 1
s 95.657897291 _8_ AGT  --- 1180 cbr 512 [0 0 0 0] ------- [8:1 10:0 32 0] [15] 0 2
r 95.675575228 _10_ AGT  --- 1180 cbr 532 [13a a 7 800] ------- [8:1 10:0 30 10] [15] 3 2
s 95.679612090 _19_ AGT  --- 1181 cbr 512 [0 0 0 0] ------- [19:1 20:1 32 0] [5] 0 3
r 95.709558429 _20_ AGT  --- 1181 cbr 532 [13a 14 2a 800] ------- [19:1 20:1 29 20] [5] 4 3
s 96.287264044 _13_ AGT  --- 1188 cbr 512 [0 0 0 0] ------- [13:2 14:1 32 0] [16] 0 3
r 96.311275262 _14_ AGT  --- 1188 cbr 532 [13a e 1d 800] ------- [13:2 14:1 29 14] [16] 4 3
s 96.328217079 _2_ AGT  --- 1189 cbr 512 [0 0 0 0] ------- [2:1 3:1 32 0] [5] 0 3
r 96.345734508 _3_ AGT  --- 1189 cbr 532 [13a 3 2e 800] ------- [2:1 3:1 30 3] [5] 3 3
s 96.436224082 _12_ AGT  --- 1190 cbr 512 [0 0 0 0] ------- [12:2 14:0 32 0] [13] 0 2
r 96.447667277 _14_ AGT  --- 1190 cbr 532 [13a e 1d 800] ------- [12:2 14:0 31 14] [13] 2 2
s 96.566171706 _20_ AGT  --- 1192 cbr 512 [0 0 0 0] ------- [20:2 21:0 32 0] [3] 0 1
r 96.571662100 _21_ AGT  --- 1192 cbr 532 [13a 15 14 800] ------- [20:2 21:0 32 21] [3] 1 1
s 97.247681954 _18_ AGT  --- 1198 cbr 512 [0 0 0 0] ------- [18:0 19:0 32 0] [4] 0 3
r 97.271633732 _19_ AGT  --- 1198 cbr 532 [13a 13 21 800] ------- [18:0 19:0 29 19] [4] 4 3
s 97.850816287 _16_ AGT  --- 1205 cbr 512 [0 0 0 0] ------- [16:0 17:0 32 0] [19] 0 1
r 97.856526038 _17_ AGT  --- 1205 cbr 532 [13a 11 10 800] ------- [16:0 17:0 32 17] [19] 1 1
s 98.291670042 _8_ AGT  --- 1208 cbr 512 [0 0 0 0] ------- [8:1 10:0 32 0] [16] 0 2
r 98.309527978 _10_ AGT  --- 1208 cbr 532 [13a a 7 800] ------- [8:1 10:0 30 10] [16] 3 2
s 98.467803526 _12_ AGT  --- 1210 cbr 512 [0 0 0 0] ------- [12:2 14:0 32 0] [14] 0 2
r 98.479786721 _14_ AGT  --- 1210 cbr 532 [13a e 1d 800] ------- [12:2 14:0 31 14] [14] 2 2
s 98.947311439 _9_ AGT  --- 1215 cbr 512 [0 0 0 0] ------- [9:2 11:0 32 0] [15] 0 2
r 98.958874673 _11_ AGT  --- 1215 cbr 532 [13a b 11 800] ------- [9:2 11:0 31 11] [15] 2 2
s 99.522647606 _18_ AGT  --- 1218 cbr 512 [0 0 0 0] ------- [18:1 20:0 32 0] [19] 0 2
r 99.534231134 _20_ AGT  --- 1218 cbr 532 [13a 14 2a 800] ------- [18:1 20:0 31 20] [19] 2 2
s 99.885719976 _18_ AGT  --- 1219 cbr 512 [0 0 0 0] ------- [18:0 19:0 32 0] [5] 0 3
r 99.909511754 _19_ AGT  --- 1219 cbr 532 [13a 13 21 800] ------- [18:0 19:0 29 19] [5] 4 3
s 99.971024772 _19_ AGT  --- 1220 cbr 512 [0 0 0 0] ------- [19:1 20:1 32 0] [6] 0 3
r 99.988962789 _20_ AGT  --- 1220 cbr 532 [13a 14 20 800] ------- [19:1 20:1 30 20] [6] 3 3
s 100.649417757 _13_ AGT  --- 1224 cbr 512 [0 0 0 0] ------- [13:2 14:1 32 0] [17] 0 3
r 100.666875312 _14_ AGT  --- 1224 cbr 532 [13a e 1d 800] ------- [13:2 14:1 30 14] [17] 3 3
s 100.777435728 _12_ AGT  --- 1225 cbr 512 [0 0 0 0] ------- [12:2 14:0 32 0] [15] 0 2
r 100.788998924 _14_ AGT  --- 1225 cbr 532 [13a e 1d 800] ------- [12:2 14:0 31 14] [15] 2 2
s 101.207798790 _20_ AGT  --- 1229 cbr 512 [0 0 0 0] ------- [20:2 21:0 32 0] [4] 0 1
r 101.213849184 _21_ AGT  --- 1229 cbr 532 [13a 15 14 800] ------- [20:2 21:0 32 21] [4] 1 1
s 101.445675946 _2_ AGT  --- 1232 cbr 512 [0 0 0 0] ------- [2:1 3:1 32 0] [6] 0 3
r 101.463894146 _3_ AGT  --- 1232 cbr 532 [13a 3 2e 800] ------- [2:1 3:1 30 3] [6] 3 3
s 101.720859886 _18_ AGT  --- 1233 cbr 512 [0 0 0 0] ------- [18:1 20:0 32 0] [20] 0 2
r 101.732363414 _20_ AGT  --- 1233 cbr 532 [13a 14 2a 800] ------- [18:1 20:0 31 20] [20] 2 2
s 101.805306640 _16_ AGT  --- 1234 cbr 512 [0 0 0 0] ------- [16:0 17:0 32 0] [20] 0 1
r 101.811196391 _17_ AGT  --- 1234 cbr 532 [13a 11 10 800] ------- [16:0 17:0 32 17] [20] 1 1
s 102.091375594 _9_ AGT  --- 1235 cbr 512 [0 0 0 0] ------- [9:2 11:0 32 0] [16] 0 2
r 102.103498828 _11_ AGT  --- 1235 cbr 532 [13a b 11 800] ------- [9:2 11:0 31 11] [16] 2 2
s 102.695330112 _19_ AGT  --- 1236 cbr 512 [0 0 0 0] ------- [19:1 20:1 32 0] [7] 0 3
r 102.713188130 _20_ AGT  --- 1236 cbr 532 [13a 14 20 800] ------- [19:1 20:1 30 20] [7] 3 3
s 103.820519507 _16_ AGT  --- 1241 cbr 512 [0 0 0 0] ------- [16:0 17:0 32 0] [21] 0 1
r 103.826049259 _17_ AGT  --- 1241 cbr 532 [13a 11 10 800] ------- [16:0 17:0 32 17] [21] 1 1
s 104.251743952 _8_ AGT  --- 1243 cbr 512 [0 0 0 0] ------- [8:1 10:0 32 0] [17] 0 2
r 104.269401427 _10_ AGT  --- 1243 cbr 532 [13a a 1b 800] ------- [8:1 10:0 30 10] [17] 3 2
s 104.849414742 _12_ AGT  --- 1246 cbr 512 [0 0 0 0] ------- [12:2 14:0 32 0] [16] 0 2
r 104.863593943 _14_ AGT  --- 1246 cbr 532 [13a e 9 800] ------- [12:2 14:0 31 14] [16] 2 2
s 105.067440071 _20_ AGT  --- 1247 cbr 512 [0 0 0 0] ------- [20:2 21:0 32 0] [5] 0 1
r 105.073330465 _21_ AGT  --- 1247 cbr 532 [13a 15 14 800] ------- [20:2 21:0 32 21] [5] 1 1
s 105.870552015 _18_ AGT  --- 1250 cbr 512 [0 0 0 0] ------- [18:0 19:0 32 0] [6] 0 3
r 105.896495506 _19_ AGT  --- 1250 cbr 532 [13a 13 c 800] ------- [18:0 19:0 30 19] [6] 3 3
s 105.999190316 _9_ AGT  --- 1252 cbr 512 [0 0 0 0] ------- [9:2 11:0 32 0] [17] 0 2
r 106.010713551 _11_ AGT  --- 1252 cbr 532 [13a b 11 800] ------- [9:2 11:0 31 11] [17] 2 2
s 106.081960128 _19_ AGT  --- 1254 cbr 512 [0 0 0 0] ------- [19:1 20:1 32 0] [8] 0 3
s 106.083234244 _12_ AGT  --- 1255 cbr 512 [0 0 0 0] ------- [12:1 13:1 32 0] [0] 0 2
r 106.099938586 _13_ AGT  --- 1255 cbr 532 [13a d 27 800] ------- [12:1 13:1 31 13] [0] 2 2
r 106.112211845 _20_ AGT  --- 1254 cbr 532 [13a 14 20 800] ------- [19:1 20:1 30 20] [8] 3 3
s 106.115266309 _13_ AGT  --- 1256 cbr 512 [0 0 0 0] ------- [13:2 14:1 32 0] [18] 0 3
r 106.139078703 _14_ AGT  --- 1256 cbr 532 [13a e 22 800] ------- [13:2 14:1 30 14] [18] 3 3
s 106.944511803 _2_ AGT  --- 1258 cbr 512 [0 0 0 0] ------- [2:1 3:1 32 0] [7] 0 3
r 106.964727474 _3_ AGT  --- 1258 cbr 532 [13a 3 1b 800] ------- [2:1 3:1 30 3] [7] 3 3
s 107.670561391 _18_ AGT  --- 1263 cbr 512 [0 0 0 0] ------- [18:1 20:0 32 0] [21] 0 2
r 107.688339047 _20_ AGT  --- 1263 cbr 532 [13a 14 30 800] ------- [18:1 20:0 31 20] [21] 2 2
s 108.465112743 _9_ AGT  --- 1268 cbr 512 [0 0 0 0] ------- [9:2 11:0 32 0] [18] 0 2
r 108.476815977 _11_ AGT  --- 1268 cbr 532 [13a b 11 800] ------- [9:2 11:0 31 11] [18] 2 2
s 108.774073935 _12_ AGT  --- 1270 cbr 512 [0 0 0 0] ------- [12:1 13:1 32 0] [1] 0 2
r 108.785738371 _13_ AGT  --- 1270 cbr 532 [13a d 27 800] ------- [12:1 13:1 31 13] [1] 2 2
s 108.848232252 _16_ AGT  --- 1271 cbr 512 [0 0 0 0] ------- [16:0 17:0 32 0] [22] 0 1
r 108.853802004 _17_ AGT  --- 1271 cbr 532 [13a 11 10 800] ------- [16:0 17:0 32 17] [22] 1 1
s 109.043155094 _19_ AGT  --- 1273 cbr 512 [0 0 0 0] ------- [19:1 20:1 32 0] [9] 0 3
r 109.061093111 _20_ AGT  --- 1273 cbr 532 [13a 14 20 800] ------- [19:1 20:1 30 20] [9] 3 3
s 109.536993107 _8_ AGT  --- 1277 cbr 512 [0 0 0 0] ------- [8:1 10:0 32 0] [18] 0 2
r 109.560124462 _10_ AGT  --- 1277 cbr 532 [13a a 1b 800] ------- [8:1 10:0 29 10] [18] 4 2
s 109.739200222 _18_ AGT  --- 1278 cbr 512 [0 0 0 0] ------- [18:0 19:0 32 0] [7] 0 3
r 109.757238668 _19_ AGT  --- 1278 cbr 532 [13a 13 c 800] ------- [18:0 19:0 30 19] [7] 3 3
s 110.052417605 _11_ AGT  --- 1280 cbr 512 [0 0 0 0] ------- [11:3 13:0 32 0] [0] 0 3
r 110.069836287 _13_ AGT  --- 1280 cbr 532 [13a d 27 800] ------- [11:3 13:0 30 13] [0] 3 3
s 110.386264381 _20_ AGT  --- 1288 cbr 512 [0 0 0 0] ------- [20:2 21:0 32 0] [6] 0 1
r 110.392294775 _21_ AGT  --- 1288 cbr 532 [13a 15 14 800] ------- [20:2 21:0 32 21] [6] 1 1
s 110.704921415 _12_ AGT  --- 1291 cbr 512 [0 0 0 0] ------- [12:2 14:0 32 0] [17] 0 2
r 110.716524096 _14_ AGT  --- 1291 cbr 532 [13a e 9 800] ------- [12:2 14:0 31 14] [17] 2 2
s 111.041250492 _13_ AGT  --- 1295 cbr 512 [0 0 0 0] ------- [13:2 14:1 32 0] [19] 0 3
r 111.058928112 _14_ AGT  --- 1295 cbr 532 [13a e 22 800] ------- [13:2 14:1 30 14] [19] 3 3
s 111.165839989 _2_ AGT  --- 1296 cbr 512 [0 0 0 0] ------- [2:1 3:1 32 0] [8] 0 3
r 111.183778314 _3_ AGT  --- 1296 cbr 532 [13a 3 1b 800] ------- [2:1 3:1 30 3] [8] 3 3
s 111.571576089 _8_ AGT  --- 1299 cbr 512 [0 0 0 0] ------- [8:1 10:0 32 0] [19] 0 2
r 111.589133888 _10_ AGT  --- 1299 cbr 532 [13a a 1b 800] ------- [8:1 10:0 30 10] [19] 3 2
s 112.130723955 _18_ AGT  --- 1301 cbr 512 [0 0 0 0] ------- [18:1 20:0 32 0] [22] 0 2
r 112.142507236 _20_ AGT  --- 1301 cbr 532 [13a 14 30 800] ------- [18:1 20:0 31 20] [22] 2 2
s 112.749914366 _12_ AGT  --- 1306 cbr 512 [0 0 0 0] ------- [12:2 14:0 32 0] [18] 0 2
r 112.761737047 _14_ AGT  --- 1306 cbr 532 [13a e 9 800] ------- [12:2 14:0 31 14] [18] 2 2
s 112.976996943 _12_ AGT  --- 1307 cbr 512 [0 0 0 0] ------- [12:1 13:1 32 0] [2] 0 2
r 112.988661379 _13_ AGT  --- 1307 cbr 532 [13a d 27 800] ------- [12:1 13:1 31 13] [2] 2 2
s 113.098733915 _11_ AGT  --- 1308 cbr 512 [0 0 0 0] ------- [11:3 13:0 32 0] [1] 0 3
r 113.116412597 _13_ AGT  --- 1308 cbr 532 [13a d 27 800] ------- [11:3 13:0 30 13] [1] 3 3
s 113.242495773 _19_ AGT  --- 1310 cbr 512 [0 0 0 0] ------- [19:1 20:1 32 0] [10] 0 3
r 113.260333790 _20_ AGT  --- 1310 cbr 532 [13a 14 20 800] ------- [19:1 20:1 30 20] [10] 3 3
s 113.304935373 _9_ AGT  --- 1311 cbr 512 [0 0 0 0] ------- [9:2 11:0 32 0] [19] 0 2
r 113.316538607 _11_ AGT  --- 1311 cbr 532 [13a b 11 800] ------- [9:2 11:0 31 11] [19] 2 2
s 113.593196294 _16_ AGT  --- 1314 cbr 512 [0 0 0 0] ------- [16:0 17:0 32 0] [23] 0 1
r 113.599026045 _17_ AGT  --- 1314 cbr 532 [13a 11 10 800] ------- [16:0 17:0 32 17] [23] 1 1
s 114.189172260 _18_ AGT  --- 1316 cbr 512 [0 0 0 0] ------- [18:0 19:0 32 0] [8] 0 3
r 114.206890706 _19_ AGT  --- 1316 cbr 532 [13a 13 c 800] ------- [18:0 19:0 30 19] [8] 3 3
s 114.892550273 _20_ AGT  --- 1320 cbr 512 [0 0 0 0] ------- [20:2 21:0 32 0] [7] 0 1
r 114.898460666 _21_ AGT  --- 1320 cbr 532 [13a 15 14 800] ------- [20:2 21:0 32 21] [7] 1 1
s 114.987916228 _13_ AGT  --- 1321 cbr 512 [0 0 0 0] ------- [13:2 14:1 32 0] [20] 0 3
r 115.005753848 _14_ AGT  --- 1321 cbr 532 [13a e 22 800] ------- [13:2 14:1 30 14] [20] 3 3
s 115.563005942 _8_ AGT  --- 1325 cbr 512 [0 0 0 0] ------- [8:1 10:0 32 0] [20] 0 2