M 0.0 nn:50 x:670 y:670 rp:dsdv
M 0.0 sc:../mobility/scene/scen-670x670-50-600-20-0 cp:../mobility/scene/cbr-50-20-4-512 seed:0.0
M 0.0 prop:Propagation/TwoRayGround ant:Antenna/OmniAntenna
s 22.465028699 _18_ AGT  --- 238 cbr 512 [0 0 0 0] ------- [18:1 20:0 32 0] [0] 0 2
r 22.482880084 _20_ AGT  --- 238 cbr 532 [14a 14 8 800] ------- [18:1 20:0 31 20] [0] 2 2
s 23.789830405 _16_ AGT  --- 240 cbr 512 [0 0 0 0] ------- [16:0 17:0 32 0] [0] 0 1
r 23.798365491 _17_ AGT  --- 240 cbr 532 [14a 11 10 800] ------- [16:0 17:0 32 17] [0] 1 1
s 27.392145149 _18_ AGT  --- 435 cbr 512 [0 0 0 0] ------- [18:1 20:0 32 0] [1] 0 2
r 27.409915116 _20_ AGT  --- 435 cbr 532 [14a 14 19 800] ------- [18:1 20:0 31 20] [1] 2 2
s 27.755585751 _16_ AGT  --- 442 cbr 512 [0 0 0 0] ------- [16:0 17:0 32 0] [1] 0 1
r 27.761303502 _17_ AGT  --- 442 cbr 532 [14a 11 10 800] ------- [16:0 17:0 32 17] [1] 1 1
s 29.031284241 _9_ AGT  --- 449 cbr 512 [0 0 0 0] ------- [9:2 11:0 32 0] [0] 0 2
r 29.049795382 _11_ AGT  --- 449 cbr 532 [14a b 22 800] ------- [9:2 11:0 31 11] [0] 2 2
s 30.208176370 _13_ AGT  --- 452 cbr 512 [0 0 0 0] ------- [13:2 14:1 32 0] [0] 0 3
r 30.235044351 _14_ AGT  --- 452 cbr 532 [14a e 0 800] ------- [13:2 14:1 30 14] [0] 3 3
s 31.149554402 _16_ AGT  --- 453 cbr 512 [0 0 0 0] ------- [16:0 17:0 32 0] [2] 0 1
r 31.155372153 _17_ AGT  --- 453 cbr 532 [14a 11 10 800] ------- [16:0 17:0 32 17] [2] 1 1
s 32.336377768 _18_ AGT  --- 454 cbr 512 [0 0 0 0] ------- [18:1 20:0 32 0] [2] 0 2
r 32.348373183 _20_ AGT  --- 454 cbr 532 [14a 14 19 800] ------- [18:1 20:0 31 20] [2] 2 2
s 33.056028255 _9_ AGT  --- 455 cbr 512 [0 0 0 0] ------- [9:2 11:0 32 0] [1] 0 2
r 33.068324173 _11_ AGT  --- 455 cbr 532 [14a b 22 800] ------- [9:2 11:0 31 11] [1] 2 2
s 33.192653729 _16_ AGT  --- 456 cbr 512 [0 0 0 0] ------- [16:0 17:0 32 0] [3] 0 1
r 33.198191481 _17_ AGT  --- 456 cbr 532 [14a 11 10 800] ------- [16:0 17:0 32 17] [3] 1 1
s 34.247160709 _13_ AGT  --- 457 cbr 512 [0 0 0 0] ------- [13:2 14:1 32 0] [1] 0 3
r 34.265395129 _14_ AGT  --- 457 cbr 532 [14a e 0 800] ------- [13:2 14:1 30 14] [1] 3 3
s 35.764208505 _16_ AGT  --- 478 cbr 512 [0 0 0 0] ------- [16:0 17:0 32 0] [4] 0 1
r 35.770266257 _17_ AGT  --- 478 cbr 532 [14a 11 10 800] ------- [16:0 17:0 32 17] [4] 1 1
s 36.064888050 _9_ AGT  --- 508 cbr 512 [0 0 0 0] ------- [9:2 11:0 32 0] [2] 0 2
r 36.082941046 _11_ AGT  --- 508 cbr 532 [14a b 11 800] ------- [9:2 11:0 31 11] [2] 2 2
s 36.205600342 _18_ AGT  --- 509 cbr 512 [0 0 0 0] ------- [18:1 20:0 32 0] [3] 0 2
r 36.223531443 _20_ AGT  --- 509 cbr 532 [14a 14 18 800] ------- [18:1 20:0 31 20] [3] 2 2
s 36.736092940 _13_ AGT  --- 531 cbr 512 [0 0 0 0] ------- [13:2 14:1 32 0] [2] 0 3
r 36.754587361 _14_ AGT  --- 531 cbr 532 [14a e 0 800] ------- [13:2 14:1 30 14] [2] 3 3
s 37.953153224 _8_ AGT  --- 590 cbr 512 [0 0 0 0] ------- [8:1 10:0 32 0] [0] 0 2
r 37.970526629 _10_ AGT  --- 590 cbr 532 [14a a 27 800] ------- [8:1 10:0 31 10] [0] 2 2
s 39.155824474 _16_ AGT  --- 656 cbr 512 [0 0 0 0] ------- [16:0 17:0 32 0] [5] 0 1
r 39.161842225 _17_ AGT  --- 656 cbr 532 [14a 11 10 800] ------- [16:0 17:0 32 17] [5] 1 1
s 40.039923621 _18_ AGT  --- 661 cbr 512 [0 0 0 0] ------- [18:1 20:0 32 0] [4] 0 2
r 40.051979521 _20_ AGT  --- 661 cbr 532 [14a 14 18 800] ------- [18:1 20:0 31 20] [4] 2 2
s 40.563342142 _8_ AGT  --- 665 cbr 512 [0 0 0 0] ------- [8:1 10:0 32 0] [1] 0 2
r 40.575139030 _10_ AGT  --- 665 cbr 532 [14a a 27 800] ------- [8:1 10:0 31 10] [1] 2 2
s 40.917940000 _12_ AGT  --- 667 cbr 512 [0 0 0 0] ------- [12:2 14:0 32 0] [0] 0 2
r 40.935872500 _14_ AGT  --- 667 cbr 532 [14a e 21 800] ------- [12:2 14:0 31 14] [0] 2 2
s 41.512821178 _9_ AGT  --- 672 cbr 512 [0 0 0 0] ------- [9:2 11:0 32 0] [3] 0 2
r 41.524356413 _11_ AGT  --- 672 cbr 532 [14a b 11 800] ------- [9:2 11:0 31 11] [3] 2 2
s 42.462552321 _13_ AGT  --- 674 cbr 512 [0 0 0 0] ------- [13:2 14:1 32 0] [3] 0 3
r 42.487081179 _14_ AGT  --- 674 cbr 532 [14a e 9 800] ------- [13:2 14:1 30 14] [3] 3 3
s 44.096649764 _16_ AGT  --- 678 cbr 512 [0 0 0 0] ------- [16:0 17:0 32 0] [6] 0 1
r 44.102507515 _17_ AGT  --- 678 cbr 532 [14a 11 10 800] ------- [16:0 17:0 32 17] [6] 1 1
s 44.332513543 _8_ AGT  --- 679 cbr 512 [0 0 0 0] ------- [8:1 10:0 32 0] [2] 0 2
r 44.344670431 _10_ AGT  --- 679 cbr 532 [14a a 27 800] ------- [8:1 10:0 31 10] [2] 2 2
s 45.386088194 _12_ AGT  --- 680 cbr 512 [0 0 0 0] ------- [12:2 14:0 32 0] [1] 0 2
r 45.398044694 _14_ AGT  --- 680 cbr 532 [14a e 21 800] ------- [12:2 14:0 31 14] [1] 2 2
s 45.472119881 _13_ AGT  --- 681 cbr 512 [0 0 0 0] ------- [13:2 14:1 32 0] [4] 0 3
r 45.490193929 _14_ AGT  --- 681 cbr 532 [14a e 9 800] ------- [13:2 14:1 30 14] [4] 3 3
s 45.530599999 _18_ AGT  --- 682 cbr 512 [0 0 0 0] ------- [18:1 20:0 32 0] [5] 0 2
r 45.541975899 _20_ AGT  --- 682 cbr 532 [14a 14 18 800] ------- [18:1 20:0 31 20] [5] 2 2
s 46.659245147 _9_ AGT  --- 684 cbr 512 [0 0 0 0] ------- [9:2 11:0 32 0] [4] 0 2
r 46.671380381 _11_ AGT  --- 684 cbr 532 [14a b 11 800] ------- [9:2 11:0 31 11] [4] 2 2
s 47.316407681 _8_ AGT  --- 687 cbr 512 [0 0 0 0] ------- [8:1 10:0 32 0] [3] 0 2
r 47.328864569 _10_ AGT  --- 687 cbr 532 [14a a 27 800] ------- [8:1 10:0 31 10] [3] 2 2
s 48.274813669 _12_ AGT  --- 729 cbr 512 [0 0 0 0] ------- [12:2 14:0 32 0] [2] 0 2
r 48.286810168 _14_ AGT  --- 729 cbr 532 [14a e 21 800] ------- [12:2 14:0 31 14] [2] 2 2
s 48.916195990 _13_ AGT  --- 769 cbr 512 [0 0 0 0] ------- [13:2 14:1 32 0] [5] 0 3
r 48.934170037 _14_ AGT  --- 769 cbr 532 [14a e 9 800] ------- [13:2 14:1 30 14] [5] 3 3
s 49.055237861 _9_ AGT  --- 772 cbr 512 [0 0 0 0] ------- [9:2 11:0 32 0] [5] 0 2
r 49.073167322 _11_ AGT  --- 772 cbr 532 [14a b a 800] ------- [9:2 11:0 31 11] [5] 2 2
s 49.454034809 _8_ AGT  --- 810 cbr 512 [0 0 0 0] ------- [8:1 10:0 32 0] [4] 0 2
r 49.465951697 _10_ AGT  --- 810 cbr 532 [14a a 27 800] ------- [8:1 10:0 31 10] [4] 2 2
s 49.632293425 _18_ AGT  --- 812 cbr 512 [0 0 0 0] ------- [18:1 20:0 32 0] [6] 0 2
r 49.649865448 _20_ AGT  --- 812 cbr 532 [14a 14 15 800] ------- [18:1 20:0 31 20] [6] 2 2
s 49.710290860 _16_ AGT  --- 814 cbr 512 [0 0 0 0] ------- [16:0 17:0 32 0] [7] 0 1
r 49.716268611 _17_ AGT  --- 814 cbr 532 [14a 11 10 800] ------- [16:0 17:0 32 17] [7] 1 1
s 51.735088147 _12_ AGT  --- 826 cbr 512 [0 0 0 0] ------- [12:2 14:0 32 0] [3] 0 2
r 51.746984647 _14_ AGT  --- 826 cbr 532 [14a e 21 800] ------- [12:2 14:0 31 14] [3] 2 2
s 52.519117845 _13_ AGT  --- 830 cbr 512 [0 0 0 0] ------- [13:2 14:1 32 0] [6] 0 3
r 52.536991892 _14_ AGT  --- 830 cbr 532 [14a e 9 800] ------- [13:2 14:1 30 14] [6] 3 3
s 52.713092690 _16_ AGT  --- 831 cbr 512 [0 0 0 0] ------- [16:0 17:0 32 0] [8] 0 1
s 52.716018068 _18_ AGT  --- 832 cbr 512 [0 0 0 0] ------- [18:1 20:0 32 0] [7] 0 2
r 52.719050441 _17_ AGT  --- 831 cbr 532 [14a 11 10 800] ------- [16:0 17:0 32 17] [8] 1 1
r 52.731708115 _20_ AGT  --- 832 cbr 532 [14a 14 15 800] ------- [18:1 20:0 31 20] [7] 2 2
s 53.859280445 _8_ AGT  --- 833 cbr 512 [0 0 0 0] ------- [8:1 10:0 32 0] [5] 0 2
r 53.871277333 _10_ AGT  --- 833 cbr 532 [14a a 27 800] ------- [8:1 10:0 31 10] [5] 2 2
s 54.050506160 _9_ AGT  --- 834 cbr 512 [0 0 0 0] ------- [9:2 11:0 32 0] [6] 0 2
r 54.062461358 _11_ AGT  --- 834 cbr 532 [14a b a 800] ------- [9:2 11:0 31 11] [6] 2 2
s 54.063737359 _12_ AGT  --- 835 cbr 512 [0 0 0 0] ------- [12:2 14:0 32 0] [4] 0 2
r 54.075873859 _14_ AGT  --- 835 cbr 532 [14a e 21 800] ------- [12:2 14:0 31 14] [4] 2 2
s 55.540445612 _18_ AGT  --- 838 cbr 512 [0 0 0 0] ------- [18:1 20:0 32 0] [8] 0 2
r 55.552341907 _20_ AGT  --- 838 cbr 532 [14a 14 15 800] ------- [18:1 20:0 31 20] [8] 2 2
s 56.409430367 _13_ AGT  --- 839 cbr 512 [0 0 0 0] ------- [13:2 14:1 32 0] [7] 0 3
r 56.427404414 _14_ AGT  --- 839 cbr 532 [14a e 9 800] ------- [13:2 14:1 30 14] [7] 3 3
s 56.496543144 _12_ AGT  --- 840 cbr 512 [0 0 0 0] ------- [12:2 14:0 32 0] [5] 0 2
r 56.508217825 _14_ AGT  --- 840 cbr 532 [14a e 9 800] ------- [12:2 14:0 31 14] [5] 2 2
s 57.702023561 _16_ AGT  --- 841 cbr 512 [0 0 0 0] ------- [16:0 17:0 32 0] [9] 0 1
r 57.707801313 _17_ AGT  --- 841 cbr 532 [14a 11 10 800] ------- [16:0 17:0 32 17] [9] 1 1
s 58.289796766 _8_ AGT  --- 842 cbr 512 [0 0 0 0] ------- [8:1 10:0 32 0] [6] 0 2
r 58.301193654 _10_ AGT  --- 842 cbr 532 [14a a 27 800] ------- [8:1 10:0 31 10] [6] 2 2
s 58.306693055 _9_ AGT  --- 843 cbr 512 [0 0 0 0] ------- [9:2 11:0 32 0] [7] 0 2
r 58.318528252 _11_ AGT  --- 843 cbr 532 [14a b a 800] ------- [9:2 11:0 31 11] [7] 2 2
s 59.758668347 _18_ AGT  --- 887 cbr 512 [0 0 0 0] ------- [18:1 20:0 32 0] [9] 0 2
r 59.782755264 _20_ AGT  --- 887 cbr 532 [14a 14 5 800] ------- [18:1 20:0 30 20] [9] 3 2
s 60.137773258 _16_ AGT  --- 902 cbr 512 [0 0 0 0] ------- [16:0 17:0 32 0] [10] 0 1
r 60.143751009 _17_ AGT  --- 902 cbr 532 [14a 11 10 800] ------- [16:0 17:0 32 17] [10] 1 1
s 61.327438032 _12_ AGT  --- 923 cbr 512 [0 0 0 0] ------- [12:2 14:0 32 0] [6] 0 2
r 61.339112713 _14_ AGT  --- 923 cbr 532 [14a e 9 800] ------- [12:2 14:0 31 14] [6] 2 2
s 61.528274855 _13_ AGT  --- 934 cbr 512 [0 0 0 0] ------- [13:2 14:1 32 0] [8] 0 3
r 61.546068903 _14_ AGT  --- 934 cbr 532 [14a e 9 800] ------- [13:2 14:1 30 14] [8] 3 3
s 61.937409500 _18_ AGT  --- 937 cbr 512 [0 0 0 0] ------- [18:1 20:0 32 0] [10] 0 2
r 61.949125796 _20_ AGT  --- 937 cbr 532 [14a 14 15 800] ------- [18:1 20:0 31 20] [10] 2 2
s 63.571892634 _8_ AGT  --- 948 cbr 512 [0 0 0 0] ------- [8:1 10:0 32 0] [7] 0 2
r 63.592944609 _10_ AGT  --- 948 cbr 532 [14a a 7 800] ------- [8:1 10:0 30 10] [7] 3 2
s 63.928659367 _9_ AGT  --- 949 cbr 512 [0 0 0 0] ------- [9:2 11:0 32 0] [8] 0 2
r 63.940574601 _11_ AGT  --- 949 cbr 532 [14a b 11 800] ------- [9:2 11:0 31 11] [8] 2 2
s 64.150231890 _16_ AGT  --- 950 cbr 512 [0 0 0 0] ------- [16:0 17:0 32 0] [11] 0 1
r 64.156109641 _17_ AGT  --- 950 cbr 532 [14a 11 10 800] ------- [16:0 17:0 32 17] [11] 1 1
s 64.451686178 _18_ AGT  --- 951 cbr 512 [0 0 0 0] ------- [18:1 20:0 32 0] [11] 0 2
r 64.463542473 _20_ AGT  --- 951 cbr 532 [14a 14 15 800] ------- [18:1 20:0 31 20] [11] 2 2
s 65.005755278 _13_ AGT  --- 952 cbr 512 [0 0 0 0] ------- [13:2 14:1 32 0] [9] 0 3
r 65.023908626 _14_ AGT  --- 952 cbr 532 [14a e 9 800] ------- [13:2 14:1 30 14] [9] 3 3
s 66.254797302 _16_ AGT  --- 954 cbr 512 [0 0 0 0] ------- [16:0 17:0 32 0] [12] 0 1
r 66.260875053 _17_ AGT  --- 954 cbr 532 [14a 11 10 800] ------- [16:0 17:0 32 17] [12] 1 1
s 66.781249628 _12_ AGT  --- 957 cbr 512 [0 0 0 0] ------- [12:2 14:0 32 0] [7] 0 2
r 66.792844309 _14_ AGT  --- 957 cbr 532 [14a e 9 800] ------- [12:2 14:0 31 14] [7] 2 2
s 67.619015874 _9_ AGT  --- 958 cbr 512 [0 0 0 0] ------- [9:2 11:0 32 0] [9] 0 2
r 67.630991109 _11_ AGT  --- 958 cbr 532 [14a b 11 800] ------- [9:2 11:0 31 11] [9] 2 2
s 68.664357412 _8_ AGT  --- 960 cbr 512 [0 0 0 0] ------- [8:1 10:0 32 0] [8] 0 2
r 68.682331418 _10_ AGT  --- 960 cbr 532 [14a a 7 800] ------- [8:1 10:0 30 10] [8] 3 2
s 69.987010305 _16_ AGT  --- 961 cbr 512 [0 0 0 0] ------- [16:0 17:0 32 0] [13] 0 1
r 69.993088056 _17_ AGT  --- 961 cbr 532 [14a 11 10 800] ------- [16:0 17:0 32 17] [13] 1 1
s 70.092650356 _13_ AGT  --- 963 cbr 512 [0 0 0 0] ------- [13:2 14:1 32 0] [10] 0 3
r 70.110363704 _14_ AGT  --- 963 cbr 532 [14a e 9 800] ------- [13:2 14:1 30 14] [10] 3 3
s 70.392694800 _18_ AGT  --- 964 cbr 512 [0 0 0 0] ------- [18:1 20:0 32 0] [12] 0 2
r 70.404331095 _20_ AGT  --- 964 cbr 532 [14a 14 15 800] ------- [18:1 20:0 31 20] [12] 2 2
s 70.725603841 _12_ AGT  --- 974 cbr 512 [0 0 0 0] ------- [12:2 14:0 32 0] [8] 0 2
r 70.737498522 _14_ AGT  --- 974 cbr 532 [14a e 9 800] ------- [12:2 14:0 31 14] [8] 2 2
s 71.689237851 _8_ AGT  --- 992 cbr 512 [0 0 0 0] ------- [8:1 10:0 32 0] [9] 0 2
r 71.707471857 _10_ AGT  --- 992 cbr 532 [14a a 7 800] ------- [8:1 10:0 30 10] [9] 3 2
s 72.147746516 _16_ AGT  --- 999 cbr 512 [0 0 0 0] ------- [16:0 17:0 32 0] [14] 0 1
r 72.153384267 _17_ AGT  --- 999 cbr 532 [14a 11 10 800] ------- [16:0 17:0 32 17] [14] 1 1
s 72.754845279 _12_ AGT  --- 1002 cbr 512 [0 0 0 0] ------- [12:2 14:0 32 0] [9] 0 2
r 72.766679960 _14_ AGT  --- 1002 cbr 532 [14a e 9 800] ------- [12:2 14:0 31 14] [9] 2 2
s 73.232979673 _18_ AGT  --- 1010 cbr 512 [0 0 0 0] ------- [18:1 20:0 32 0] [13] 0 2
r 73.250449330 _20_ AGT  --- 1010 cbr 532 [14a 14 30 800] ------- [18:1 20:0 31 20] [13] 2 2
s 73.482258693 _9_ AGT  --- 1015 cbr 512 [0 0 0 0] ------- [9:2 11:0 32 0] [10] 0 2
r 73.494033928 _11_ AGT  --- 1015 cbr 532 [14a b 11 800] ------- [9:2 11:0 31 11] [10] 2 2
s 74.643239191 _13_ AGT  --- 1022 cbr 512 [0 0 0 0] ------- [13:2 14:1 32 0] [11] 0 3
r 74.661432540 _14_ AGT  --- 1022 cbr 532 [14a e 9 800] ------- [13:2 14:1 30 14] [11] 3 3
s 75.080626357 _12_ AGT  --- 1024 cbr 512 [0 0 0 0] ------- [12:2 14:0 32 0] [10] 0 2
r 75.092321038 _14_ AGT  --- 1024 cbr 532 [14a e 9 800] ------- [12:2 14:0 31 14] [10] 2 2
s 75.477956243 _19_ AGT  --- 1025 cbr 512 [0 0 0 0] ------- [19:1 20:1 32 0] [0] 0 3
r 75.495110406 _20_ AGT  --- 1025 cbr 532 [14a 14 15 800] ------- [19:1 20:1 30 20] [0] 3 3
s 76.912998207 _8_ AGT  --- 1031 cbr 512 [0 0 0 0] ------- [8:1 10:0 32 0] [10] 0 2
r 76.925135095 _10_ AGT  --- 1031 cbr 532 [14a a 27 800] ------- [8:1 10:0 31 10] [10] 2 2
s 77.396516794 _16_ AGT  --- 1032 cbr 512 [0 0 0 0] ------- [16:0 17:0 32 0] [15] 0 1
r 77.402274545 _17_ AGT  --- 1032 cbr 532 [14a 11 10 800] ------- [16:0 17:0 32 17] [15] 1 1
s 78.410509623 _19_ AGT  --- 1033 cbr 512 [0 0 0 0] ------- [19:1 20:1 32 0] [1] 0 3
r 78.428543786 _20_ AGT  --- 1033 cbr 532 [14a 14 15 800] ------- [19:1 20:1 30 20] [1] 3 3
s 78.511616870 _9_ AGT  --- 1034 cbr 512 [0 0 0 0] ------- [9:2 11:0 32 0] [11] 0 2
r 78.523612105 _11_ AGT  --- 1034 cbr 532 [14a b 11 800] ------- [9:2 11:0 31 11] [11] 2 2
s 78.764644285 _18_ AGT  --- 1036 cbr 512 [0 0 0 0] ------- [18:1 20:0 32 0] [14] 0 2
r 78.782915862 _20_ AGT  --- 1036 cbr 532 [14a 14 5 800] ------- [18:1 20:0 30 20] [14] 3 2
s 79.371595438 _2_ AGT  --- 1038 cbr 512 [0 0 0 0] ------- [2:1 3:1 32 0] [0] 0 3
r 79.395065047 _3_ AGT  --- 1038 cbr 532 [14a 3 1b 800] ------- [2:1 3:1 30 3] [0] 3 3
s 79.404483277 _13_ AGT  --- 1039 cbr 512 [0 0 0 0] ------- [13:2 14:1 32 0] [12] 0 3
r 79.422476625 _14_ AGT  --- 1039 cbr 532 [14a e 9 800] ------- [13:2 14:1 30 14] [12] 3 3
s 79.426060245 _12_ AGT  --- 1040 cbr 512 [0 0 0 0] ------- [12:2 14:0 32 0] [11] 0 2
r 79.438254926 _14_ AGT  --- 1040 cbr 532 [14a e 9 800] ------- [12:2 14:0 31 14] [11] 2 2
s 80.596308893 _8_ AGT  --- 1041 cbr 512 [0 0 0 0] ------- [8:1 10:0 32 0] [11] 0 2
r 80.608045781 _10_ AGT  --- 1041 cbr 532 [14a a 27 800] ------- [8:1 10:0 31 10] [11] 2 2
s 81.462552377 _18_ AGT  --- 1043 cbr 512 [0 0 0 0] ------- [18:1 20:0 32 0] [15] 0 2
r 81.480003954 _20_ AGT  --- 1043 cbr 532 [14a 14 5 800] ------- [18:1 20:0 30 20] [15] 3 2
s 81.564280332 _16_ AGT  --- 1044 cbr 512 [0 0 0 0] ------- [16:0 17:0 32 0] [16] 0 1
r 81.569998083 _17_ AGT  --- 1044 cbr 532 [14a 11 10 800] ------- [16:0 17:0 32 17] [16] 1 1
s 82.530031346 _13_ AGT  --- 1049 cbr 512 [0 0 0 0] ------- [13:2 14:1 32 0] [13] 0 3
r 82.548584694 _14_ AGT  --- 1049 cbr 532 [14a e 9 800] ------- [13:2 14:1 30 14] [13] 3 3
s 82.576154704 _19_ AGT  --- 1051 cbr 512 [0 0 0 0] ------- [19:1 20:1 32 0] [2] 0 3
r 82.599645481 _20_ AGT  --- 1051 cbr 532 [14a 14 5 800] ------- [19:1 20:1 29 20] [2] 4 3
s 83.477359659 _18_ AGT  --- 1056 cbr 512 [0 0 0 0] ------- [18:1 20:0 32 0] [16] 0 2
r 83.495911236 _20_ AGT  --- 1056 cbr 532 [14a 14 5 800] ------- [18:1 20:0 30 20] [16] 3 2
s 83.602217233 _18_ AGT  --- 1057 cbr 512 [0 0 0 0] ------- [18:0 19:0 32 0] [0] 0 3
r 83.631101592 _19_ AGT  --- 1057 cbr 532 [14a 13 21 800] ------- [18:0 19:0 29 19] [0] 4 3
s 83.644134711 _20_ AGT  --- 1058 cbr 512 [0 0 0 0] ------- [20:2 21:0 32 0] [0] 0 1
r 83.649893105 _21_ AGT  --- 1058 cbr 532 [14a 15 14 800] ------- [20:2 21:0 32 21] [0] 1 1
s 83.980942573 _9_ AGT  --- 1059 cbr 512 [0 0 0 0] ------- [9:2 11:0 32 0] [12] 0 2
r 83.992717808 _11_ AGT  --- 1059 cbr 532 [14a b 11 800] ------- [9:2 11:0 31 11] [12] 2 2
s 84.224841368 _2_ AGT  --- 1063 cbr 512 [0 0 0 0] ------- [2:1 3:1 32 0] [1] 0 3
s 84.234547207 _12_ AGT  --- 1065 cbr 512 [0 0 0 0] ------- [12:2 14:0 32 0] [12] 0 2
r 84.242535694 _3_ AGT  --- 1063 cbr 532 [14a 3 1b 800] ------- [2:1 3:1 30 3] [1] 3 3
r 84.259793262 _14_ AGT  --- 1065 cbr 532 [14a e 21 800] ------- [12:2 14:0 31 14] [12] 2 2
s 85.458939914 _13_ AGT  --- 1075 cbr 512 [0 0 0 0] ------- [13:2 14:1 32 0] [14] 0 3
r 85.482146993 _14_ AGT  --- 1075 cbr 532 [14a e 16 800] ------- [13:2 14:1 30 14] [14] 3 3
s 85.482947887 _8_ AGT  --- 1076 cbr 512 [0 0 0 0] ------- [8:1 10:0 32 0] [12] 0 2
r 85.494904775 _10_ AGT  --- 1076 cbr 532 [14a a 27 800] ------- [8:1 10:0 31 10] [12] 2 2
s 86.057602553 _16_ AGT  --- 1081 cbr 512 [0 0 0 0] ------- [16:0 17:0 32 0] [17] 0 1
r 86.063280304 _17_ AGT  --- 1081 cbr 532 [14a 11 10 800] ------- [16:0 17:0 32 17] [17] 1 1
s 86.394198244 _2_ AGT  --- 1083 cbr 512 [0 0 0 0] ------- [2:1 3:1 32 0] [2] 0 3
r 86.411632570 _3_ AGT  --- 1083 cbr 532 [14a 3 1b 800] ------- [2:1 3:1 30 3] [2] 3 3
s 86.930369392 _20_ AGT  --- 1091 cbr 512 [0 0 0 0] ------- [20:2 21:0 32 0] [1] 0 1
r 86.936267785 _21_ AGT  --- 1091 cbr 532 [14a 15 14 800] ------- [20:2 21:0 32 21] [1] 1 1
s 87.056144128 _18_ AGT  --- 1092 cbr 512 [0 0 0 0] ------- [18:1 20:0 32 0] [17] 0 2
r 87.077332092 _20_ AGT  --- 1092 cbr 532 [14a 14 5 800] ------- [18:1 20:0 30 20] [17] 3 2
s 87.587627833 _18_ AGT  --- 1097 cbr 512 [0 0 0 0] ------- [18:0 19:0 32 0] [1] 0 3
r 87.608658889 _19_ AGT  --- 1097 cbr 532 [14a 13 c 800] ------- [18:0 19:0 30 19] [1] 3 3
s 88.200065807 _12_ AGT  --- 1101 cbr 512 [0 0 0 0] ------- [12:2 14:0 32 0] [13] 0 2
r 88.212042306 _14_ AGT  --- 1101 cbr 532 [14a e 21 800] ------- [12:2 14:0 31 14] [13] 2 2
s 88.258921162 _19_ AGT  --- 1103 cbr 512 [0 0 0 0] ------- [19:1 20:1 32 0] [3] 0 3
r 88.282470505 _20_ AGT  --- 1103 cbr 532 [14a 14 20 800] ------- [19:1 20:1 30 20] [3] 3 3
s 88.520140833 _2_ AGT  --- 1104 cbr 512 [0 0 0 0] ------- [2:1 3:1 32 0] [3] 0 3
r 88.538275158 _3_ AGT  --- 1104 cbr 532 [14a 3 1b 800] ------- [2:1 3:1 30 3] [3] 3 3
s 88.562331753 _8_ AGT  --- 1105 cbr 512 [0 0 0 0] ------- [8:1 10:0 32 0] [13] 0 2
r 88.574468642 _10_ AGT  --- 1105 cbr 532 [14a a 27 800] ------- [8:1 10:0 31 10] [13] 2 2
s 88.691357889 _13_ AGT  --- 1107 cbr 512 [0 0 0 0] ------- [13:2 14:1 32 0] [15] 0 3
r 88.708910984 _14_ AGT  --- 1107 cbr 532 [14a e 16 800] ------- [13:2 14:1 30 14] [15] 3 3
s 89.360487871 _9_ AGT  --- 1109 cbr 512 [0 0 0 0] ------- [9:2 11:0 32 0] [13] 0 2
r 89.372203105 _11_ AGT  --- 1109 cbr 532 [14a b 11 800] ------- [9:2 11:0 31 11] [13] 2 2
s 89.660194789 _18_ AGT  --- 1111 cbr 512 [0 0 0 0] ------- [18:1 20:0 32 0] [18] 0 2
r 89.678146617 _20_ AGT  --- 1111 cbr 532 [14a 14 5 800] ------- [18:1 20:0 30 20] [18] 3 2
s 90.274202016 _12_ AGT  --- 1113 cbr 512 [0 0 0 0] ------- [12:2 14:0 32 0] [14] 0 2
r 90.285578516 _14_ AGT  --- 1113 cbr 532 [14a e 21 800] ------- [12:2 14:0 31 14] [14] 2 2
s 90.309699981 _16_ AGT  --- 1114 cbr 512 [0 0 0 0] ------- [16:0 17:0 32 0] [18] 0 1
r 90.315337733 _17_ AGT  --- 1114 cbr 532 [14a 11 10 800] ------- [16:0 17:0 32 17] [18] 1 1
s 90.800745021 _18_ AGT  --- 1116 cbr 512 [0 0 0 0] ------- [18:0 19:0 32 0] [2] 0 3
r 90.818298380 _19_ AGT  --- 1116 cbr 532 [14a 13 c 800] ------- [18:0 19:0 30 19] [2] 3 3
s 91.071945911 _13_ AGT  --- 1117 cbr 512 [0 0 0 0] ------- [13:2 14:1 32 0] [16] 0 3
r 91.089879006 _14_ AGT  --- 1117 cbr 532 [14a e 16 800] ------- [13:2 14:1 30 14] [16] 3 3
s 91.665801129 _2_ AGT  --- 1120 cbr 512 [0 0 0 0] ------- [2:1 3:1 32 0] [4] 0 3
r 91.683795455 _3_ AGT  --- 1120 cbr 532 [14a 3 1b 800] ------- [2:1 3:1 30 3] [4] 3 3
s 92.286265066 _8_ AGT  --- 1123 cbr 512 [0 0 0 0] ------- [8:1 10:0 32 0] [14] 0 2
r 92.298141954 _10_ AGT  --- 1123 cbr 532 [14a a 27 800] ------- [8:1 10:0 31 10] [14] 2 2
s 92.496576721 _16_ AGT  --- 1124 cbr 512 [0 0 0 0] ------- [16:0 17:0 32 0] [19] 0 1
r 92.502554472 _17_ AGT  --- 1124 cbr 532 [14a 11 10 800] ------- [16:0 17:0 32 17] [19] 1 1
s 92.905032864 _20_ AGT  --- 1125 cbr 512 [0 0 0 0] ------- [20:2 21:0 32 0] [2] 0 1
r 92.911031258 _21_ AGT  --- 1125 cbr 532 [14a 15 14 800] ------- [20:2 21:0 32 21] [2] 1 1
s 93.854607821 _13_ AGT  --- 1127 cbr 512 [0 0 0 0] ------- [13:2 14:1 32 0] [17] 0 3
r 93.872121133 _14_ AGT  --- 1127 cbr 532 [14a e 16 800] ------- [13:2 14:1 30 14] [17] 3 3
s 94.247049364 _9_ AGT  --- 1128 cbr 512 [0 0 0 0] ------- [9:2 11:0 32 0] [14] 0 2
s 94.250347520 _19_ AGT  --- 1129 cbr 512 [0 0 0 0] ------- [19:1 20:1 32 0] [4] 0 3
r 94.258564598 _11_ AGT  --- 1128 cbr 532 [14a b 11 800] ------- [9:2 11:0 31 11] [14] 2 2
r 94.277320343 _20_ AGT  --- 1129 cbr 532 [14a 14 20 800] ------- [19:1 20:1 30 20] [4] 3 3
s 95.109015408 _18_ AGT  --- 1132 cbr 512 [0 0 0 0] ------- [18:1 20:0 32 0] [19] 0 2
r 95.126884930 _20_ AGT  --- 1132 cbr 532 [14a 14 29 800] ------- [18:1 20:0 31 20] [19] 2 2
s 95.147516036 _18_ AGT  --- 1133 cbr 512 [0 0 0 0] ------- [18:0 19:0 32 0] [3] 0 3
s 95.150860983 _12_ AGT  --- 1134 cbr 512 [0 0 0 0] ------- [12:2 14:0 32 0] [15] 0 2
r 95.170918948 _14_ AGT  --- 1134 cbr 532 [14a e 21 800] ------- [12:2 14:0 31 14] [15] 2 2
r 95.183176305 _19_ AGT  --- 1133 cbr 532 [14a 13 c 800] ------- [18:0 19:0 29 19] [3] 4 3
s 95.401889115 _8_ AGT  --- 1135 cbr 512 [0 0 0 0] ------- [8:1 10:0 32 0] [15] 0 2
r 95.413186003 _10_ AGT  --- 1135 cbr 532 [14a a 27 800] ------- [8:1 10:0 31 10] [15] 2 2
s 96.231141247 _2_ AGT  --- 1139 cbr 512 [0 0 0 0] ------- [2:1 3:1 32 0] [5] 0 3
r 96.248955573 _3_ AGT  --- 1139 cbr 532 [14a 3 1b 800] ------- [2:1 3:1 30 3] [5] 3 3
s 96.741700975 _19_ AGT  --- 1143 cbr 512 [0 0 0 0] ------- [19:1 20:1 32 0] [5] 0 3
r 96.769851223 _20_ AGT  --- 1143 cbr 532 [14a 14 15 800] ------- [19:1 20:1 29 20] [5] 4 3
s 96.778818148 _16_ AGT  --- 1144 cbr 512 [0 0 0 0] ------- [16:0 17:0 32 0] [20] 0 1
r 96.784635899 _17_ AGT  --- 1144 cbr 532 [14a 11 10 800] ------- [16:0 17:0 32 17] [20] 1 1
s 97.955374267 _20_ AGT  --- 1150 cbr 512 [0 0 0 0] ------- [20:2 21:0 32 0] [3] 0 1
s 97.956204612 _13_ AGT  --- 1151 cbr 512 [0 0 0 0] ------- [13:2 14:1 32 0] [18] 0 3
r 97.961052661 _21_ AGT  --- 1150 cbr 532 [14a 15 14 800] ------- [20:2 21:0 32 21] [3] 1 1
r 97.985002538 _14_ AGT  --- 1151 cbr 532 [14a e 2b 800] ------- [13:2 14:1 30 14] [18] 3 3
s 98.526089963 _2_ AGT  --- 1157 cbr 512 [0 0 0 0] ------- [2:1 3:1 32 0] [6] 0 3
r 98.544855198 _3_ AGT  --- 1157 cbr 532 [14a 3 1b 800] ------- [2:1 3:1 30 3] [6] 3 3
s 99.317760308 _8_ AGT  --- 1167 cbr 512 [0 0 0 0] ------- [8:1 10:0 32 0] [16] 0 2
r 99.329358985 _10_ AGT  --- 1167 cbr 532 [14a a 27 800] ------- [8:1 10:0 31 10] [16] 2 2
s 99.588445710 _9_ AGT  --- 1170 cbr 512 [0 0 0 0] ------- [9:2 11:0 32 0] [15] 0 2
r 99.600101627 _11_ AGT  --- 1170 cbr 532 [14a b 22 800] ------- [9:2 11:0 31 11] [15] 2 2
s 99.865849042 _12_ AGT  --- 1172 cbr 512 [0 0 0 0] ------- [12:2 14:0 32 0] [16] 0 2
r 99.877745542 _14_ AGT  --- 1172 cbr 532 [14a e 21 800] ------- [12:2 14:0 31 14] [16] 2 2
s 100.162834692 _18_ AGT  --- 1176 cbr 512 [0 0 0 0] ------- [18:1 20:0 32 0] [20] 0 2
r 100.175089916 _20_ AGT  --- 1176 cbr 532 [14a 14 29 800] ------- [18:1 20:0 31 20] [20] 2 2
s 100.401564088 _18_ AGT  --- 1178 cbr 512 [0 0 0 0] ------- [18:0 19:0 32 0] [4] 0 3
r 100.425256754 _19_ AGT  --- 1178 cbr 532 [14a 13 21 800] ------- [18:0 19:0 29 19] [4] 4 3
s 101.182061390 _20_ AGT  --- 1184 cbr 512 [0 0 0 0] ------- [20:2 21:0 32 0] [4] 0 1
r 101.188139783 _21_ AGT  --- 1184 cbr 532 [14a 15 14 800] ------- [20:2 21:0 32 21] [4] 1 1
s 101.325960841 _19_ AGT  --- 1186 cbr 512 [0 0 0 0] ------- [19:1 20:1 32 0] [6] 0 3
r 101.349693237 _20_ AGT  --- 1186 cbr 532 [14a 14 15 800] ------- [19:1 20:1 29 20] [6] 4 3
s 101.418977328 _16_ AGT  --- 1187 cbr 512 [0 0 0 0] ------- [16:0 17:0 32 0] [21] 0 1
r 101.424735079 _17_ AGT  --- 1187 cbr 532 [14a 11 10 800] ------- [16:0 17:0 32 17] [21] 1 1
s 101.811961271 _13_ AGT  --- 1190 cbr 512 [0 0 0 0] ------- [13:2 14:1 32 0] [19] 0 3
r 101.830873124 _14_ AGT  --- 1190 cbr 532 [14a e 2b 800] ------- [13:2 14:1 30 14] [19] 3 3
s 102.721852373 _9_ AGT  --- 1192 cbr 512 [0 0 0 0] ------- [9:2 11:0 32 0] [16] 0 2
r 102.733408290 _11_ AGT  --- 1192 cbr 532 [14a b 22 800] ------- [9:2 11:0 31 11] [16] 2 2
s 102.892148249 _12_ AGT  --- 1193 cbr 512 [0 0 0 0] ------- [12:2 14:0 32 0] [17] 0 2
r 102.904124749 _14_ AGT  --- 1193 cbr 532 [14a e 21 800] ------- [12:2 14:0 31 14] [17] 2 2
s 103.406674138 _18_ AGT  --- 1195 cbr 512 [0 0 0 0] ------- [18:1 20:0 32 0] [21] 0 2
r 103.421727160 _20_ AGT  --- 1195 cbr 532 [14a 14 d 800] ------- [18:1 20:0 31 20] [21] 2 2
s 103.663309714 _8_ AGT  --- 1198 cbr 512 [0 0 0 0] ------- [8:1 10:0 32 0] [17] 0 2
r 103.675406602 _10_ AGT  --- 1198 cbr 532 [14a a 27 800] ------- [8:1 10:0 31 10] [17] 2 2
s 104.118382947 _2_ AGT  --- 1203 cbr 512 [0 0 0 0] ------- [2:1 3:1 32 0] [7] 0 3
r 104.135717272 _3_ AGT  --- 1203 cbr 532 [14a 3 1b 800] ------- [2:1 3:1 30 3] [7] 3 3
s 104.265205762 _16_ AGT  --- 1204 cbr 512 [0 0 0 0] ------- [16:0 17:0 32 0] [22] 0 1
r 104.270843513 _17_ AGT  --- 1204 cbr 532 [14a 11 10 800] ------- [16:0 17:0 32 17] [22] 1 1
s 104.385148662 _20_ AGT  --- 1205 cbr 512 [0 0 0 0] ------- [20:2 21:0 32 0] [5] 0 1
r 104.390747055 _21_ AGT  --- 1205 cbr 532 [14a 15 14 800] ------- [20:2 21:0 32 21] [5] 1 1
s 105.674700159 _13_ AGT  --- 1210 cbr 512 [0 0 0 0] ------- [13:2 14:1 32 0] [20] 0 3
r 105.695532224 _14_ AGT  --- 1210 cbr 532 [14a e 16 800] ------- [13:2 14:1 30 14] [20] 3 3
s 105.972941916 _8_ AGT  --- 1211 cbr 512 [0 0 0 0] ------- [8:1 10:0 32 0] [18] 0 2
r 105.984858804 _10_ AGT  --- 1211 cbr 532 [14a a 27 800] ------- [8:1 10:0 31 10] [18] 2 2
s 106.083234244 _12_ AGT  --- 1212 cbr 512 [0 0 0 0] ------- [12:1 13:1 32 0] [0] 0 2
r 106.094710680 _13_ AGT  --- 1212 cbr 532 [14a d 27 800] ------- [12:1 13:1 31 13] [0] 2 2
s 106.121491040 _18_ AGT  --- 1213 cbr 512 [0 0 0 0] ------- [18:0 19:0 32 0] [5] 0 3
r 106.145383706 _19_ AGT  --- 1213 cbr 532 [14a 13 21 800] ------- [18:0 19:0 29 19] [5] 4 3
s 106.193997636 _12_ AGT  --- 1214 cbr 512 [0 0 0 0] ------- [12:2 14:0 32 0] [18] 0 2
r 106.206074136 _14_ AGT  --- 1214 cbr 532 [14a e 21 800] ------- [12:2 14:0 31 14] [18] 2 2
s 106.405044177 _20_ AGT  --- 1216 cbr 512 [0 0 0 0] ------- [20:2 21:0 32 0] [6] 0 1
r 106.410782571 _21_ AGT  --- 1216 cbr 532 [14a 15 14 800] ------- [20:2 21:0 32 21] [6] 1 1
s 106.546827199 _18_ AGT  --- 1217 cbr 512 [0 0 0 0] ------- [18:1 20:0 32 0] [22] 0 2
r 106.558702664 _20_ AGT  --- 1217 cbr 532 [14a 14 d 800] ------- [18:1 20:0 31 20] [22] 2 2
s 107.071734939 _19_ AGT  --- 1218 cbr 512 [0 0 0 0] ------- [19:1 20:1 32 0] [7] 0 3
r 107.092625957 _20_ AGT  --- 1218 cbr 532 [14a 14 20 800] ------- [19:1 20:1 30 20] [7] 3 3
s 108.144772080 _9_ AGT  --- 1222 cbr 512 [0 0 0 0] ------- [9:2 11:0 32 0] [17] 0 2
r 108.156547278 _11_ AGT  --- 1222 cbr 532 [14a b a 800] ------- [9:2 11:0 31 11] [17] 2 2
s 108.686963759 _18_ AGT  --- 1226 cbr 512 [0 0 0 0] ------- [18:1 20:0 32 0] [23] 0 2
r 108.698959224 _20_ AGT  --- 1226 cbr 532 [14a 14 d 800] ------- [18:1 20:0 31 20] [23] 2 2
s 108.855286893 _16_ AGT  --- 1227 cbr 512 [0 0 0 0] ------- [16:0 17:0 32 0] [23] 0 1
r 108.860844644 _17_ AGT  --- 1227 cbr 532 [14a 11 10 800] ------- [16:0 17:0 32 17] [23] 1 1
s 109.416203080 _13_ AGT  --- 1232 cbr 512 [0 0 0 0] ------- [13:2 14:1 32 0] [21] 0 3
r 109.434616967 _14_ AGT  --- 1232 cbr 532 [14a e 16 800] ------- [13:2 14:1 30 14] [21] 3 3
s 109.704240271 _2_ AGT  --- 1235 cbr 512 [0 0 0 0] ------- [2:1 3:1 32 0] [8] 0 3
r 109.721894596 _3_ AGT  --- 1235 cbr 532 [14a 3 1b 800] ------- [2:1 3:1 30 3] [8] 3 3
s 110.052417605 _11_ AGT  --- 1236 cbr 512 [0 0 0 0] ------- [11:3 13:0 32 0] [0] 0 3
r 110.070392287 _13_ AGT  --- 1236 cbr 532 [14a d 27 800] ------- [11:3 13:0 30 13] [0] 3 3
s 110.177342189 _12_ AGT  --- 1239 cbr 512 [0 0 0 0] ------- [12:2 14:0 32 0] [19] 0 2
r 110.188836870 _14_ AGT  --- 1239 cbr 532 [14a e 9 800] ------- [12:2 14:0 31 14] [19] 2 2
s 110.924383448 _12_ AGT  --- 1247 cbr 512 [0 0 0 0] ------- [12:1 13:1 32 0] [1] 0 2
r 110.935879884 _13_ AGT  --- 1247 cbr 532 [14a d 27 800] ------- [12:1 13:1 31 13] [1] 2 2
s 111.061681555 _8_ AGT  --- 1250 cbr 512 [0 0 0 0] ------- [8:1 10:0 32 0] [19] 0 2
r 111.073518443 _10_ AGT  --- 1250 cbr 532 [14a a 27 800] ------- [8:1 10:0 31 10] [19] 2 2
s 111.583687806 _9_ AGT  --- 1254 cbr 512 [0 0 0 0] ------- [9:2 11:0 32 0] [18] 0 2
s 111.587339592 _18_ AGT  --- 1255 cbr 512 [0 0 0 0] ------- [18:0 19:0 32 0] [6] 0 3
r 111.595383004 _11_ AGT  --- 1254 cbr 532 [14a b a 800] ------- [9:2 11:0 31 11] [18] 2 2
r 111.622694413 _19_ AGT  --- 1255 cbr 532 [14a 13 1a 800] ------- [18:0 19:0 29 19] [6] 4 3
s 111.654788492 _20_ AGT  --- 1259 cbr 512 [0 0 0 0] ------- [20:2 21:0 32 0] [7] 0 1
r 111.660426885 _21_ AGT  --- 1259 cbr 532 [14a 15 14 800] ------- [20:2 21:0 32 21] [7] 1 1
s 112.027922439 _19_ AGT  --- 1261 cbr 512 [0 0 0 0] ------- [19:1 20:1 32 0] [8] 0 3
r 112.045956289 _20_ AGT  --- 1261 cbr 532 [14a 14 20 800] ------- [19:1 20:1 30 20] [8] 3 3
s 113.020047985 _12_ AGT  --- 1267 cbr 512 [0 0 0 0] ------- [12:2 14:0 32 0] [20] 0 2
r 113.031982666 _14_ AGT  --- 1267 cbr 532 [14a e 9 800] ------- [12:2 14:0 31 14] [20] 2 2
s 113.083415506 _18_ AGT  --- 1268 cbr 512 [0 0 0 0] ------- [18:1 20:0 32 0] [24] 0 2
r 113.095810971 _20_ AGT  --- 1268 cbr 532 [14a 14 d 800] ------- [18:1 20:0 31 20] [24] 2 2
s 113.626577325 _2_ AGT  --- 1274 cbr 512 [0 0 0 0] ------- [2:1 3:1 32 0] [9] 0 3
s 113.633921985 _16_ AGT  --- 1275 cbr 512 [0 0 0 0] ------- [16:0 17:0 32 0] [24] 0 1
r 113.644511650 _3_ AGT  --- 1274 cbr 532 [14a 3 1b 800] ------- [2:1 3:1 30 3] [9] 3 3
r 113.650830666 _17_ AGT  --- 1275 cbr 532 [14a 11 10 800] ------- [16:0 17:0 32 17] [24] 1 1
s 113.780214295 _11_ AGT  --- 1276 cbr 512 [0 0 0 0] ------- [11:3 13:0 32 0] [1] 0 3