M 0.0 nn:3 x:670 y:670 rp:dsdv
M 0.0 sc:../mobility/scene/scen-3-test cp: seed:0.0
M 0.0 prop:Propagation/TwoRayGround ant:Antenna/OmniAntenna
s 0.000339577 _2_ AGT  --- 0 udp 48 [0 0 0 0] ------- [4194304:0 -1:0 32 0] 
r 0.004121598 _4_ AGT  --- 0 udp 68 [0 ffffffff 0 800] ------- [4194304:0 -1:0 31 0] 
s 0.004121598 _4_ AGT  --- 1 udp 52 [0 0 0 0] ------- [4194306:0 4194304:0 32 0] 
s 0.504121598 _4_ AGT  --- 2 udp 52 [0 0 0 0] ------- [4194306:0 4194304:0 32 0] 
s 0.555880716 _3_ AGT  --- 3 udp 48 [0 0 0 0] ------- [8388608:0 -1:0 32 0] 
s 1.000339577 _2_ AGT  --- 5 udp 48 [0 0 0 0] ------- [4194304:0 -1:0 32 0] 
r 1.003503633 _4_ AGT  --- 5 udp 68 [0 ffffffff 0 800] ------- [4194304:0 -1:0 31 0] 
s 1.003503633 _4_ AGT  --- 6 udp 52 [0 0 0 0] ------- [4194306:0 4194304:0 32 0] 
s 1.503503633 _4_ AGT  --- 7 udp 52 [0 0 0 0] ------- [4194306:0 4194304:0 32 0] 
s 1.555880716 _3_ AGT  --- 8 udp 48 [0 0 0 0] ------- [8388608:0 -1:0 32 0] 
D 1.604465398 _4_ IFQ  ARP 1 udp 92 [0 0 2 800] ------- [4194306:0 4194304:0 32 4194304] 
D 1.604465398 _4_ IFQ  ARP 2 udp 92 [0 0 2 800] ------- [4194306:0 4194304:0 32 4194304] 
D 1.604465398 _4_ RTR  CBK 6 udp 92 [0 0 2 800] ------- [4194306:0 4194304:0 32 4194304] 
D 1.604465398 _4_ RTR  CBK 7 udp 92 [0 0 2 800] ------- [4194306:0 4194304:0 32 4194304] 
s 2.000339577 _2_ AGT  --- 11 udp 48 [0 0 0 0] ------- [4194304:0 -1:0 32 0] 
s 2.003503633 _4_ AGT  --- 12 udp 52 [0 0 0 0] ------- [4194306:0 4194304:0 32 0] 
r 2.005899643 _2_ AGT  --- 12 udp 72 [14a 0 2 800] ------- [4194306:0 4194304:0 32 4194304] 
s 2.005899643 _2_ AGT  --- 12 udp 72 [14a 0 2 800] ------- [4194304:0 4194306:0 32 4194304] 
r 2.008215653 _4_ AGT  --- 12 udp 92 [14a 2 0 800] ------- [4194304:0 4194306:0 32 4194306] 
r 2.010829059 _4_ AGT  --- 11 udp 68 [0 ffffffff 0 800] ------- [4194304:0 -1:0 31 0] 
s 2.010829059 _4_ AGT  --- 13 udp 52 [0 0 0 0] ------- [4194306:0 4194304:0 32 0] 
r 2.012825069 _2_ AGT  --- 13 udp 72 [14a 0 2 800] ------- [4194306:0 4194304:0 32 4194304] 
s 2.012825069 _2_ AGT  --- 13 udp 72 [14a 0 2 800] ------- [4194304:0 4194306:0 32 4194304] 
r 2.015141079 _4_ AGT  --- 13 udp 92 [14a 2 0 800] ------- [4194304:0 4194306:0 32 4194306] 
s 2.555880716 _3_ AGT  --- 14 udp 48 [0 0 0 0] ------- [8388608:0 -1:0 32 0] 
s 3.000339577 _2_ AGT  --- 15 udp 48 [0 0 0 0] ------- [4194304:0 -1:0 32 0] 
r 3.007183977 _4_ AGT  --- 15 udp 68 [0 ffffffff 0 800] ------- [4194304:0 -1:0 31 0] 
s 3.007183977 _4_ AGT  --- 16 udp 52 [0 0 0 0] ------- [4194306:0 4194304:0 32 0] 
r 3.009299987 _2_ AGT  --- 16 udp 72 [14a 0 2 800] ------- [4194306:0 4194304:0 32 4194304] 
s 3.009299987 _2_ AGT  --- 16 udp 72 [14a 0 2 800] ------- [4194304:0 4194306:0 32 4194304] 
r 3.011555997 _4_ AGT  --- 16 udp 92 [14a 2 0 800] ------- [4194304:0 4194306:0 32 4194306] 
s 3.555880716 _3_ AGT  --- 17 udp 48 [0 0 0 0] ------- [8388608:0 -1:0 32 0] 
s 4.000339577 _2_ AGT  --- 18 udp 48 [0 0 0 0] ------- [4194304:0 -1:0 32 0] 
r 4.003322859 _4_ AGT  --- 18 udp 68 [0 ffffffff 0 800] ------- [4194304:0 -1:0 31 0] 
s 4.003322859 _4_ AGT  --- 19 udp 52 [0 0 0 0] ------- [4194306:0 4194304:0 32 0] 
r 4.005178869 _2_ AGT  --- 19 udp 72 [14a 0 2 800] ------- [4194306:0 4194304:0 32 4194304] 
s 4.005178869 _2_ AGT  --- 19 udp 72 [14a 0 2 800] ------- [4194304:0 4194306:0 32 4194304] 
r 4.007654879 _4_ AGT  --- 19 udp 92 [14a 2 0 800] ------- [4194304:0 4194306:0 32 4194306] 
s 4.555880716 _3_ AGT  --- 20 udp 48 [0 0 0 0] ------- [8388608:0 -1:0 32 0] 
s 5.000339577 _2_ AGT  --- 21 udp 48 [0 0 0 0] ------- [4194304:0 -1:0 32 0] 
r 5.002497582 _4_ AGT  --- 21 udp 68 [0 ffffffff 0 800] ------- [4194304:0 -1:0 31 0] 
s 5.002497582 _4_ AGT  --- 22 udp 52 [0 0 0 0] ------- [4194306:0 4194304:0 32 0] 
r 5.004653592 _2_ AGT  --- 22 udp 72 [14a 0 2 800] ------- [4194306:0 4194304:0 32 4194304] 
s 5.004653592 _2_ AGT  --- 22 udp 72 [14a 0 2 800] ------- [4194304:0 4194306:0 32 4194304] 
r 5.007509602 _4_ AGT  --- 22 udp 92 [14a 2 0 800] ------- [4194304:0 4194306:0 32 4194306] 
s 5.555880716 _3_ AGT  --- 23 udp 48 [0 0 0 0] ------- [8388608:0 -1:0 32 0] 
s 6.000339577 _2_ AGT  --- 24 udp 48 [0 0 0 0] ------- [4194304:0 -1:0 32 0] 
r 6.010111404 _4_ AGT  --- 24 udp 68 [0 ffffffff 0 800] ------- [4194304:0 -1:0 31 0] 
s 6.010111404 _4_ AGT  --- 25 udp 52 [0 0 0 0] ------- [4194306:0 4194304:0 32 0] 
r 6.012227414 _2_ AGT  --- 25 udp 72 [14a 0 2 800] ------- [4194306:0 4194304:0 32 4194304] 
s 6.012227414 _2_ AGT  --- 25 udp 72 [14a 0 2 800] ------- [4194304:0 4194306:0 32 4194304] 
r 6.014783424 _4_ AGT  --- 25 udp 92 [14a 2 0 800] ------- [4194304:0 4194306:0 32 4194306] 
s 6.555880716 _3_ AGT  --- 26 udp 48 [0 0 0 0] ------- [8388608:0 -1:0 32 0] 
s 7.000339577 _2_ AGT  --- 27 udp 48 [0 0 0 0] ------- [4194304:0 -1:0 32 0] 
r 7.008812479 _4_ AGT  --- 27 udp 68 [0 ffffffff 0 800] ------- [4194304:0 -1:0 31 0] 
s 7.008812479 _4_ AGT  --- 28 udp 52 [0 0 0 0] ------- [4194306:0 4194304:0 32 0] 
r 7.010748489 _2_ AGT  --- 28 udp 72 [14a 0 2 800] ------- [4194306:0 4194304:0 32 4194304] 
s 7.010748489 _2_ AGT  --- 28 udp 72 [14a 0 2 800] ------- [4194304:0 4194306:0 32 4194304] 
r 7.013244499 _4_ AGT  --- 28 udp 92 [14a 2 0 800] ------- [4194304:0 4194306:0 32 4194306] 
s 7.555880716 _3_ AGT  --- 29 udp 48 [0 0 0 0] ------- [8388608:0 -1:0 32 0] 
s 8.000339577 _2_ AGT  --- 30 udp 48 [0 0 0 0] ------- [4194304:0 -1:0 32 0] 
r 8.009893899 _4_ AGT  --- 30 udp 68 [0 ffffffff 0 800] ------- [4194304:0 -1:0 31 0] 
s 8.009893899 _4_ AGT  --- 31 udp 52 [0 0 0 0] ------- [4194306:0 4194304:0 32 0] 
r 8.012029909 _2_ AGT  --- 31 udp 72 [14a 0 2 800] ------- [4194306:0 4194304:0 32 4194304] 
s 8.012029909 _2_ AGT  --- 31 udp 72 [14a 0 2 800] ------- [4194304:0 4194306:0 32 4194304] 
r 8.014425919 _4_ AGT  --- 31 udp 92 [14a 2 0 800] ------- [4194304:0 4194306:0 32 4194306] 
s 8.555880716 _3_ AGT  --- 32 udp 48 [0 0 0 0] ------- [8388608:0 -1:0 32 0] 
s 9.000339577 _2_ AGT  --- 33 udp 48 [0 0 0 0] ------- [4194304:0 -1:0 32 0] 
r 9.002095552 _4_ AGT  --- 33 udp 68 [0 ffffffff 0 800] ------- [4194304:0 -1:0 31 0] 
s 9.002095552 _4_ AGT  --- 34 udp 52 [0 0 0 0] ------- [4194306:0 4194304:0 32 0] 
r 9.004331562 _2_ AGT  --- 34 udp 72 [14a 0 2 800] ------- [4194306:0 4194304:0 32 4194304] 
s 9.004331562 _2_ AGT  --- 34 udp 72 [14a 0 2 800] ------- [4194304:0 4194306:0 32 4194304] 
r 9.006727572 _4_ AGT  --- 34 udp 92 [14a 2 0 800] ------- [4194304:0 4194306:0 32 4194306] 
s 9.555880716 _3_ AGT  --- 35 udp 48 [0 0 0 0] ------- [8388608:0 -1:0 32 0] 
s 10.000339577 _2_ AGT  --- 36 udp 48 [0 0 0 0] ------- [4194304:0 -1:0 32 0] 
r 10.005870371 _4_ AGT  --- 36 udp 68 [0 ffffffff 0 800] ------- [4194304:0 -1:0 31 0] 
s 10.005870371 _4_ AGT  --- 37 udp 52 [0 0 0 0] ------- [4194306:0 4194304:0 32 0] 
r 10.008066381 _2_ AGT  --- 37 udp 72 [14a 0 2 800] ------- [4194306:0 4194304:0 32 4194304] 
s 10.008066381 _2_ AGT  --- 37 udp 72 [14a 0 2 800] ------- [4194304:0 4194306:0 32 4194304] 
r 10.010342391 _4_ AGT  --- 37 udp 92 [14a 2 0 800] ------- [4194304:0 4194306:0 32 4194306] 
s 10.555880716 _3_ AGT  --- 38 udp 48 [0 0 0 0] ------- [8388608:0 -1:0 32 0] 
s 11.000339577 _2_ AGT  --- 39 udp 48 [0 0 0 0] ------- [4194304:0 -1:0 32 0] 
r 11.003422429 _4_ AGT  --- 39 udp 68 [0 ffffffff 0 800] ------- [4194304:0 -1:0 31 0] 
s 11.003422429 _4_ AGT  --- 40 udp 52 [0 0 0 0] ------- [4194306:0 4194304:0 32 0] 
r 11.005338439 _2_ AGT  --- 40 udp 72 [14a 0 2 800] ------- [4194306:0 4194304:0 32 4194304] 
s 11.005338439 _2_ AGT  --- 40 udp 72 [14a 0 2 800] ------- [4194304:0 4194306:0 32 4194304] 
r 11.007594449 _4_ AGT  --- 40 udp 92 [14a 2 0 800] ------- [4194304:0 4194306:0 32 4194306] 
s 11.555880716 _3_ AGT  --- 41 udp 48 [0 0 0 0] ------- [8388608:0 -1:0 32 0] 
s 12.000339577 _2_ AGT  --- 42 udp 48 [0 0 0 0] ------- [4194304:0 -1:0 32 0] 
r 12.007926375 _4_ AGT  --- 42 udp 68 [0 ffffffff 0 800] ------- [4194304:0 -1:0 31 0] 
s 12.007926375 _4_ AGT  --- 43 udp 52 [0 0 0 0] ------- [4194306:0 4194304:0 32 0] 
r 12.010262385 _2_ AGT  --- 43 udp 72 [14a 0 2 800] ------- [4194306:0 4194304:0 32 4194304] 
s 12.010262385 _2_ AGT  --- 43 udp 72 [14a 0 2 800] ------- [4194304:0 4194306:0 32 4194304] 
r 12.012618395 _4_ AGT  --- 43 udp 92 [14a 2 0 800] ------- [4194304:0 4194306:0 32 4194306] 
s 12.555880716 _3_ AGT  --- 45 udp 48 [0 0 0 0] ------- [8388608:0 -1:0 32 0] 
s 13.000339577 _2_ AGT  --- 46 udp 48 [0 0 0 0] ------- [4194304:0 -1:0 32 0] 
r 13.011733887 _4_ AGT  --- 46 udp 68 [0 ffffffff 0 800] ------- [4194304:0 -1:0 31 0] 
s 13.011733887 _4_ AGT  --- 47 udp 52 [0 0 0 0] ------- [4194306:0 4194304:0 32 0] 
r 13.014089897 _2_ AGT  --- 47 udp 72 [14a 0 2 800] ------- [4194306:0 4194304:0 32 4194304] 
s 13.014089897 _2_ AGT  --- 47 udp 72 [14a 0 2 800] ------- [4194304:0 4194306:0 32 4194304] 
r 13.016885907 _4_ AGT  --- 47 udp 92 [14a 2 0 800] ------- [4194304:0 4194306:0 32 4194306] 
s 13.555880716 _3_ AGT  --- 48 udp 48 [0 0 0 0] ------- [8388608:0 -1:0 32 0] 
s 14.000339577 _2_ AGT  --- 51 udp 48 [0 0 0 0] ------- [4194304:0 -1:0 32 0] 
r 14.008009997 _4_ AGT  --- 51 udp 68 [0 ffffffff 0 800] ------- [4194304:0 -1:0 31 0] 
s 14.008009997 _4_ AGT  --- 52 udp 52 [0 0 0 0] ------- [4194306:0 4194304:0 32 0] 
r 14.010326007 _2_ AGT  --- 52 udp 72 [14a 0 2 800] ------- [4194306:0 4194304:0 32 4194304] 
s 14.010326007 _2_ AGT  --- 52 udp 72 [14a 0 2 800] ------- [4194304:0 4194306:0 32 4194304] 
r 14.012662017 _4_ AGT  --- 52 udp 92 [14a 2 0 800] ------- [4194304:0 4194306:0 32 4194306] 
s 14.555880716 _3_ AGT  --- 53 udp 48 [0 0 0 0] ------- [8388608:0 -1:0 32 0] 
s 15.000339577 _2_ AGT  --- 55 udp 48 [0 0 0 0] ------- [4194304:0 -1:0 32 0] 
r 15.008519101 _4_ AGT  --- 55 udp 68 [0 ffffffff 0 800] ------- [4194304:0 -1:0 31 0] 
s 15.008519101 _4_ AGT  --- 56 udp 52 [0 0 0 0] ------- [4194306:0 4194304:0 32 0] 
r 15.010415111 _2_ AGT  --- 56 udp 72 [14a 0 2 800] ------- [4194306:0 4194304:0 32 4194304] 
s 15.010415111 _2_ AGT  --- 56 udp 72 [14a 0 2 800] ------- [4194304:0 4194306:0 32 4194304] 
r 15.013231121 _4_ AGT  --- 56 udp 92 [14a 2 0 800] ------- [4194304:0 4194306:0 32 4194306] 
s 15.555880716 _3_ AGT  --- 57 udp 48 [0 0 0 0] ------- [8388608:0 -1:0 32 0] 
s 16.000339577 _2_ AGT  --- 58 udp 48 [0 0 0 0] ------- [4194304:0 -1:0 32 0] 
r 16.010509308 _4_ AGT  --- 58 udp 68 [0 ffffffff 0 800] ------- [4194304:0 -1:0 31 0] 
s 16.010509308 _4_ AGT  --- 59 udp 52 [0 0 0 0] ------- [4194306:0 4194304:0 32 0] 
r 16.012425318 _2_ AGT  --- 59 udp 72 [14a 0 2 800] ------- [4194306:0 4194304:0 32 4194304] 
s 16.012425318 _2_ AGT  --- 59 udp 72 [14a 0 2 800] ------- [4194304:0 4194306:0 32 4194304] 
r 16.015141328 _4_ AGT  --- 59 udp 92 [14a 2 0 800] ------- [4194304:0 4194306:0 32 4194306] 
s 16.555880716 _3_ AGT  --- 60 udp 48 [0 0 0 0] ------- [8388608:0 -1:0 32 0] 
s 17.000339577 _2_ AGT  --- 61 udp 48 [0 0 0 0] ------- [4194304:0 -1:0 32 0] 
r 17.008817222 _4_ AGT  --- 61 udp 68 [0 ffffffff 0 800] ------- [4194304:0 -1:0 31 0] 
s 17.008817222 _4_ AGT  --- 62 udp 52 [0 0 0 0] ------- [4194306:0 4194304:0 32 0] 
r 17.010793232 _2_ AGT  --- 62 udp 72 [14a 0 2 800] ------- [4194306:0 4194304:0 32 4194304] 
s 17.010793232 _2_ AGT  --- 62 udp 72 [14a 0 2 800] ------- [4194304:0 4194306:0 32 4194304] 
r 17.013209242 _4_ AGT  --- 62 udp 92 [14a 2 0 800] ------- [4194304:0 4194306:0 32 4194306] 
s 17.555880716 _3_ AGT  --- 63 udp 48 [0 0 0 0] ------- [8388608:0 -1:0 32 0] 
s 18.000339577 _2_ AGT  --- 64 udp 48 [0 0 0 0] ------- [4194304:0 -1:0 32 0] 
r 18.005207973 _4_ AGT  --- 64 udp 68 [0 ffffffff 0 800] ------- [4194304:0 -1:0 31 0] 
s 18.005207973 _4_ AGT  --- 65 udp 52 [0 0 0 0] ------- [4194306:0 4194304:0 32 0] 
r 18.007443983 _2_ AGT  --- 65 udp 72 [14a 0 2 800] ------- [4194306:0 4194304:0 32 4194304] 
s 18.007443983 _2_ AGT  --- 65 udp 72 [14a 0 2 800] ------- [4194304:0 4194306:0 32 4194304] 
r 18.009939993 _4_ AGT  --- 65 udp 92 [14a 2 0 800] ------- [4194304:0 4194306:0 32 4194306] 
s 18.555880716 _3_ AGT  --- 66 udp 48 [0 0 0 0] ------- [8388608:0 -1:0 32 0] 
s 19.000339577 _2_ AGT  --- 67 udp 48 [0 0 0 0] ------- [4194304:0 -1:0 32 0] 
r 19.011378589 _4_ AGT  --- 67 udp 68 [0 ffffffff 0 800] ------- [4194304:0 -1:0 31 0] 
s 19.011378589 _4_ AGT  --- 68 udp 52 [0 0 0 0] ------- [4194306:0 4194304:0 32 0] 
r 19.013774599 _2_ AGT  --- 68 udp 72 [14a 0 2 800] ------- [4194306:0 4194304:0 32 4194304] 
s 19.013774599 _2_ AGT  --- 68 udp 72 [14a 0 2 800] ------- [4194304:0 4194306:0 32 4194304] 
r 19.016190609 _4_ AGT  --- 68 udp 92 [14a 2 0 800] ------- [4194304:0 4194306:0 32 4194306] 
s 19.555880716 _3_ AGT  --- 69 udp 48 [0 0 0 0] ------- [8388608:0 -1:0 32 0] 
s 20.000339577 _2_ AGT  --- 70 udp 48 [0 0 0 0] ------- [4194304:0 -1:0 32 0] 
r 20.004862135 _4_ AGT  --- 70 udp 68 [0 ffffffff 0 800] ------- [4194304:0 -1:0 31 0] 
s 20.004862135 _4_ AGT  --- 71 udp 52 [0 0 0 0] ------- [4194306:0 4194304:0 32 0] 
r 20.007158145 _2_ AGT  --- 71 udp 72 [14a 0 2 800] ------- [4194306:0 4194304:0 32 4194304] 
s 20.007158145 _2_ AGT  --- 71 udp 72 [14a 0 2 800] ------- [4194304:0 4194306:0 32 4194304] 
r 20.009854155 _4_ AGT  --- 71 udp 92 [14a 2 0 800] ------- [4194304:0 4194306:0 32 4194306] 
s 20.555880716 _3_ AGT  --- 72 udp 48 [0 0 0 0] ------- [8388608:0 -1:0 32 0] 
s 21.000339577 _2_ AGT  --- 73 udp 48 [0 0 0 0] ------- [4194304:0 -1:0 32 0] 
r 21.010574603 _4_ AGT  --- 73 udp 68 [0 ffffffff 0 800] ------- [4194304:0 -1:0 31 0] 
s 21.010574603 _4_ AGT  --- 74 udp 52 [0 0 0 0] ------- [4194306:0 4194304:0 32 0] 
r 21.012950613 _2_ AGT  --- 74 udp 72 [14a 0 2 800] ------- [4194306:0 4194304:0 32 4194304] 
s 21.012950613 _2_ AGT  --- 74 udp 72 [14a 0 2 800] ------- [4194304:0 4194306:0 32 4194304] 
r 21.015646623 _4_ AGT  --- 74 udp 92 [14a 2 0 800] ------- [4194304:0 4194306:0 32 4194306] 
s 21.555880716 _3_ AGT  --- 75 udp 48 [0 0 0 0] ------- [8388608:0 -1:0 32 0] 
s 22.000339577 _2_ AGT  --- 76 udp 48 [0 0 0 0] ------- [4194304:0 -1:0 32 0] 
r 22.004343368 _4_ AGT  --- 76 udp 68 [0 ffffffff 0 800] ------- [4194304:0 -1:0 31 0] 
s 22.004343368 _4_ AGT  --- 77 udp 52 [0 0 0 0] ------- [4194306:0 4194304:0 32 0] 
r 22.006159378 _2_ AGT  --- 77 udp 72 [14a 0 2 800] ------- [4194306:0 4194304:0 32 4194304] 
s 22.006159378 _2_ AGT  --- 77 udp 72 [14a 0 2 800] ------- [4194304:0 4194306:0 32 4194304] 
r 22.008595388 _4_ AGT  --- 77 udp 92 [14a 2 0 800] ------- [4194304:0 4194306:0 32 4194306] 
s 22.555880716 _3_ AGT  --- 78 udp 48 [0 0 0 0] ------- [8388608:0 -1:0 32 0] 
s 23.000339577 _2_ AGT  --- 79 udp 48 [0 0 0 0] ------- [4194304:0 -1:0 32 0] 
r 23.002143714 _4_ AGT  --- 79 udp 68 [0 ffffffff 0 800] ------- [4194304:0 -1:0 31 0] 
s 23.002143714 _4_ AGT  --- 80 udp 52 [0 0 0 0] ------- [4194306:0 4194304:0 32 0] 
r 23.004079724 _2_ AGT  --- 80 udp 72 [14a 0 2 800] ------- [4194306:0 4194304:0 32 4194304] 
s 23.004079724 _2_ AGT  --- 80 udp 72 [14a 0 2 800] ------- [4194304:0 4194306:0 32 4194304] 
r 23.006675734 _4_ AGT  --- 80 udp 92 [14a 2 0 800] ------- [4194304:0 4194306:0 32 4194306] 
s 23.555880716 _3_ AGT  --- 81 udp 48 [0 0 0 0] ------- [8388608:0 -1:0 32 0] 
s 24.000339577 _2_ AGT  --- 82 udp 48 [0 0 0 0] ------- [4194304:0 -1:0 32 0] 
r 24.006900746 _4_ AGT  --- 82 udp 68 [0 ffffffff 0 800] ------- [4194304:0 -1:0 31 0] 
s 24.006900746 _4_ AGT  --- 83 udp 52 [0 0 0 0] ------- [4194306:0 4194304:0 32 0] 
r 24.009096756 _2_ AGT  --- 83 udp 72 [14a 0 2 800] ------- [4194306:0 4194304:0 32 4194304] 
s 24.009096756 _2_ AGT  --- 83 udp 72 [14a 0 2 800] ------- [4194304:0 4194306:0 32 4194304] 
r 24.011652766 _4_ AGT  --- 83 udp 92 [14a 2 0 800] ------- [4194304:0 4194306:0 32 4194306] 
s 24.555880716 _3_ AGT  --- 84 udp 48 [0 0 0 0] ------- [8388608:0 -1:0 32 0] 
s 25.000339577 _2_ AGT  --- 85 udp 48 [0 0 0 0] ------- [4194304:0 -1:0 32 0] 
r 25.004790302 _4_ AGT  --- 85 udp 68 [0 ffffffff 0 800] ------- [4194304:0 -1:0 31 0] 
s 25.004790302 _4_ AGT  --- 86 udp 52 [0 0 0 0] ------- [4194306:0 4194304:0 32 0] 
r 25.006886312 _2_ AGT  --- 86 udp 72 [14a 0 2 800] ------- [4194306:0 4194304:0 32 4194304] 
s 25.006886312 _2_ AGT  --- 86 udp 72 [14a 0 2 800] ------- [4194304:0 4194306:0 32 4194304] 
r 25.009502322 _4_ AGT  --- 86 udp 92 [14a 2 0 800] ------- [4194304:0 4194306:0 32 4194306] 
s 25.555880716 _3_ AGT  --- 87 udp 48 [0 0 0 0] ------- [8388608:0 -1:0 32 0] 
s 26.000339577 _2_ AGT  --- 89 udp 48 [0 0 0 0] ------- [4194304:0 -1:0 32 0] 
r 26.007408684 _4_ AGT  --- 89 udp 68 [0 ffffffff 0 800] ------- [4194304:0 -1:0 31 0] 
s 26.007408684 _4_ AGT  --- 90 udp 52 [0 0 0 0] ------- [4194306:0 4194304:0 32 0] 
r 26.009644694 _2_ AGT  --- 90 udp 72 [14a 0 2 800] ------- [4194306:0 4194304:0 32 4194304] 
s 26.009644694 _2_ AGT  --- 90 udp 72 [14a 0 2 800] ------- [4194304:0 4194306:0 32 4194304] 
r 26.012040704 _4_ AGT  --- 90 udp 92 [14a 2 0 800] ------- [4194304:0 4194306:0 32 4194306] 
s 26.555880716 _3_ AGT  --- 92 udp 48 [0 0 0 0] ------- [8388608:0 -1:0 32 0] 
s 27.000339577 _2_ AGT  --- 94 udp 48 [0 0 0 0] ------- [4194304:0 -1:0 32 0] 
r 27.006440700 _4_ AGT  --- 94 udp 68 [0 ffffffff 0 800] ------- [4194304:0 -1:0 31 0] 
s 27.006440700 _4_ AGT  --- 95 udp 52 [0 0 0 0] ------- [4194306:0 4194304:0 32 0] 
r 27.008556710 _2_ AGT  --- 95 udp 72 [14a 0 2 800] ------- [4194306:0 4194304:0 32 4194304] 
s 27.008556710 _2_ AGT  --- 95 udp 72 [14a 0 2 800] ------- [4194304:0 4194306:0 32 4194304] 
r 27.011052720 _4_ AGT  --- 95 udp 92 [14a 2 0 800] ------- [4194304:0 4194306:0 32 4194306] 
s 27.555880716 _3_ AGT  --- 96 udp 48 [0 0 0 0] ------- [8388608:0 -1:0 32 0] 
s 28.000339577 _2_ AGT  --- 97 udp 48 [0 0 0 0] ------- [4194304:0 -1:0 32 0] 
r 28.009853688 _4_ AGT  --- 97 udp 68 [0 ffffffff 0 800] ------- [4194304:0 -1:0 31 0] 
s 28.009853688 _4_ AGT  --- 98 udp 52 [0 0 0 0] ------- [4194306:0 4194304:0 32 0] 
r 28.012109698 _2_ AGT  --- 98 udp 72 [14a 0 2 800] ------- [4194306:0 4194304:0 32 4194304] 
s 28.012109698 _2_ AGT  --- 98 udp 72 [14a 0 2 800] ------- [4194304:0 4194306:0 32 4194304] 
r 28.014405708 _4_ AGT  --- 98 udp 92 [14a 2 0 800] ------- [4194304:0 4194306:0 32 4194306] 
s 28.555880716 _3_ AGT  --- 99 udp 48 [0 0 0 0] ------- [8388608:0 -1:0 32 0] 
s 29.000339577 _2_ AGT  --- 100 udp 48 [0 0 0 0] ------- [4194304:0 -1:0 32 0] 
r 29.011431393 _4_ AGT  --- 100 udp 68 [0 ffffffff 0 800] ------- [4194304:0 -1:0 31 0] 
s 29.011431393 _4_ AGT  --- 101 udp 52 [0 0 0 0] ------- [4194306:0 4194304:0 32 0] 
r 29.013387403 _2_ AGT  --- 101 udp 72 [14a 0 2 800] ------- [4194306:0 4194304:0 32 4194304] 
s 29.013387403 _2_ AGT  --- 101 udp 72 [14a 0 2 800] ------- [4194304:0 4194306:0 32 4194304] 
r 29.016063413 _4_ AGT  --- 101 udp 92 [14a 2 0 800] ------- [4194304:0 4194306:0 32 4194306] 
s 29.555880716 _3_ AGT  --- 102 udp 48 [0 0 0 0] ------- [8388608:0 -1:0 32 0] 
s 30.000339577 _2_ AGT  --- 103 udp 48 [0 0 0 0] ------- [4194304:0 -1:0 32 0] 
r 30.004141518 _4_ AGT  --- 103 udp 68 [0 ffffffff 0 800] ------- [4194304:0 -1:0 31 0] 
s 30.004141518 _4_ AGT  --- 104 udp 52 [0 0 0 0] ------- [4194306:0 4194304:0 32 0] 
r 30.005997528 _2_ AGT  --- 104 udp 72 [14a 0 2 800] ------- [4194306:0 4194304:0 32 4194304] 
s 30.005997528 _2_ AGT  --- 104 udp 72 [14a 0 2 800] ------- [4194304:0 4194306:0 32 4194304] 
r 30.008573538 _4_ AGT  --- 104 udp 92 [14a 2 0 800] ------- [4194304:0 4194306:0 32 4194306] 
s 30.555880716 _3_ AGT  --- 105 udp 48 [0 0 0 0] ------- [8388608:0 -1:0 32 0] 
s 31.000339577 _2_ AGT  --- 106 udp 48 [0 0 0 0] ------- [4194304:0 -1:0 32 0] 
r 31.002569051 _4_ AGT  --- 106 udp 68 [0 ffffffff 0 800] ------- [4194304:0 -1:0 31 0] 
s 31.002569051 _4_ AGT  --- 107 udp 52 [0 0 0 0] ------- [4194306:0 4194304:0 32 0] 
r 31.004385061 _2_ AGT  --- 107 udp 72 [14a 0 2 800] ------- [4194306:0 4194304:0 32 4194304] 
s 31.004385061 _2_ AGT  --- 107 udp 72 [14a 0 2 800] ------- [4194304:0 4194306:0 32 4194304] 
r 31.007001071 _4_ AGT  --- 107 udp 92 [14a 2 0 800] ------- [4194304:0 4194306:0 32 4194306] 
s 31.555880716 _3_ AGT  --- 108 udp 48 [0 0 0 0] ------- [8388608:0 -1:0 32 0] 
s 32.000339577 _2_ AGT  --- 109 udp 48 [0 0 0 0] ------- [4194304:0 -1:0 32 0] 
r 32.004786909 _4_ AGT  --- 109 udp 68 [0 ffffffff 0 800] ------- [4194304:0 -1:0 31 0] 
s 32.004786909 _4_ AGT  --- 110 udp 52 [0 0 0 0] ------- [4194306:0 4194304:0 32 0] 
r 32.006902919 _2_ AGT  --- 110 udp 72 [14a 0 2 800] ------- [4194306:0 4194304:0 32 4194304] 
s 32.006902919 _2_ AGT  --- 110 udp 72 [14a 0 2 800] ------- [4194304:0 4194306:0 32 4194304] 
r 32.009418929 _4_ AGT  --- 110 udp 92 [14a 2 0 800] ------- [4194304:0 4194306:0 32 4194306] 
s 32.555880716 _3_ AGT  --- 111 udp 48 [0 0 0 0] ------- [8388608:0 -1:0 32 0] 
s 33.000339577 _2_ AGT  --- 112 udp 48 [0 0 0 0] ------- [4194304:0 -1:0 32 0] 
r 33.004431385 _4_ AGT  --- 112 udp 68 [0 ffffffff 0 800] ------- [4194304:0 -1:0 31 0] 
s 33.004431385 _4_ AGT  --- 113 udp 52 [0 0 0 0] ------- [4194306:0 4194304:0 32 0] 
r 33.006547395 _2_ AGT  --- 113 udp 72 [14a 0 2 800] ------- [4194306:0 4194304:0 32 4194304] 
s 33.006547395 _2_ AGT  --- 113 udp 72 [14a 0 2 800] ------- [4194304:0 4194306:0 32 4194304] 
r 33.009003405 _4_ AGT  --- 113 udp 92 [14a 2 0 800] ------- [4194304:0 4194306:0 32 4194306] 
s 33.555880716 _3_ AGT  --- 114 udp 48 [0 0 0 0] ------- [8388608:0 -1:0 32 0] 
s 34.000339577 _2_ AGT  --- 115 udp 48 [0 0 0 0] ------- [4194304:0 -1:0 32 0] 
r 34.004754817 _4_ AGT  --- 115 udp 68 [0 ffffffff 0 800] ------- [4194304:0 -1:0 31 0] 
s 34.004754817 _4_ AGT  --- 116 udp 52 [0 0 0 0] ------- [4194306:0 4194304:0 32 0] 
r 34.006610827 _2_ AGT  --- 116 udp 72 [14a 0 2 800] ------- [4194306:0 4194304:0 32 4194304] 
s 34.006610827 _2_ AGT  --- 116 udp 72 [14a 0 2 800] ------- [4194304:0 4194306:0 32 4194304] 
r 34.009186837 _4_ AGT  --- 116 udp 92 [14a 2 0 800] ------- [4194304:0 4194306:0 32 4194306] 
s 34.555880716 _3_ AGT  --- 117 udp 48 [0 0 0 0] ------- [8388608:0 -1:0 32 0] 
s 35.000339577 _2_ AGT  --- 118 udp 48 [0 0 0 0] ------- [4194304:0 -1:0 32 0] 
r 35.003523319 _4_ AGT  --- 118 udp 68 [0 ffffffff 0 800] ------- [4194304:0 -1:0 31 0] 
s 35.003523319 _4_ AGT  --- 119 udp 52 [0 0 0 0] ------- [4194306:0 4194304:0 32 0] 
r 35.005359329 _2_ AGT  --- 119 udp 72 [14a 0 2 800] ------- [4194306:0 4194304:0 32 4194304] 
s 35.005359329 _2_ AGT  --- 119 udp 72 [14a 0 2 800] ------- [4194304:0 4194306:0 32 4194304] 
r 35.008155339 _4_ AGT  --- 119 udp 92 [14a 2 0 800] ------- [4194304:0 4194306:0 32 4194306] 
s 35.555880716 _3_ AGT  --- 120 udp 48 [0 0 0 0] ------- [8388608:0 -1:0 32 0] 
s 36.000339577 _2_ AGT  --- 121 udp 48 [0 0 0 0] ------- [4194304:0 -1:0 32 0] 
r 36.003591909 _4_ AGT  --- 121 udp 68 [0 ffffffff 0 800] ------- [4194304:0 -1:0 31 0] 
s 36.003591909 _4_ AGT  --- 122 udp 52 [0 0 0 0] ------- [4194306:0 4194304:0 32 0] 
r 36.005427919 _2_ AGT  --- 122 udp 72 [14a 0 2 800] ------- [4194306:0 4194304:0 32 4194304] 
s 36.005427919 _2_ AGT  --- 122 udp 72 [14a 0 2 800] ------- [4194304:0 4194306:0 32 4194304] 
r 36.008023929 _4_ AGT  --- 122 udp 92 [14a 2 0 800] ------- [4194304:0 4194306:0 32 4194306] 
s 36.555880716 _3_ AGT  --- 123 udp 48 [0 0 0 0] ------- [8388608:0 -1:0 32 0] 
s 37.000339577 _2_ AGT  --- 124 udp 48 [0 0 0 0] ------- [4194304:0 -1:0 32 0] 
r 37.003636486 _4_ AGT  --- 124 udp 68 [0 ffffffff 0 800] ------- [4194304:0 -1:0 31 0] 
s 37.003636486 _4_ AGT  --- 125 udp 52 [0 0 0 0] ------- [4194306:0 4194304:0 32 0] 
r 37.005452496 _2_ AGT  --- 125 udp 72 [14a 0 2 800] ------- [4194306:0 4194304:0 32 4194304] 
s 37.005452496 _2_ AGT  --- 125 udp 72 [14a 0 2 800] ------- [4194304:0 4194306:0 32 4194304] 
r 37.007868506 _4_ AGT  --- 125 udp 92 [14a 2 0 800] ------- [4194304:0 4194306:0 32 4194306] 
s 37.555880716 _3_ AGT  --- 127 udp 48 [0 0 0 0] ------- [8388608:0 -1:0 32 0] 
s 38.000339577 _2_ AGT  --- 128 udp 48 [0 0 0 0] ------- [4194304:0 -1:0 32 0] 
r 38.004524428 _4_ AGT  --- 128 udp 68 [0 ffffffff 0 800] ------- [4194304:0 -1:0 31 0] 
s 38.004524428 _4_ AGT  --- 129 udp 52 [0 0 0 0] ------- [4194306:0 4194304:0 32 0] 
r 38.006740438 _2_ AGT  --- 129 udp 72 [14a 0 2 800] ------- [4194306:0 4194304:0 32 4194304] 
s 38.006740438 _2_ AGT  --- 129 udp 72 [14a 0 2 800] ------- [4194304:0 4194306:0 32 4194304] 
r 38.009156448 _4_ AGT  --- 129 udp 92 [14a 2 0 800] ------- [4194304:0 4194306:0 32 4194306] 
s 38.555880716 _3_ AGT  --- 131 udp 48 [0 0 0 0] ------- [8388608:0 -1:0 32 0] 
s 39.000339577 _2_ AGT  --- 132 udp 48 [0 0 0 0] ------- [4194304:0 -1:0 32 0] 
r 39.010161970 _4_ AGT  --- 132 udp 68 [0 ffffffff 0 800] ------- [4194304:0 -1:0 31 0] 
s 39.010161970 _4_ AGT  --- 133 udp 52 [0 0 0 0] ------- [4194306:0 4194304:0 32 0] 
r 39.011977980 _2_ AGT  --- 133 udp 72 [14a 0 2 800] ------- [4194306:0 4194304:0 32 4194304] 
s 39.011977980 _2_ AGT  --- 133 udp 72 [14a 0 2 800] ------- [4194304:0 4194306:0 32 4194304] 
r 39.014293990 _4_ AGT  --- 133 udp 92 [14a 2 0 800] ------- [4194304:0 4194306:0 32 4194306] 
s 39.555880716 _3_ AGT  --- 134 udp 48 [0 0 0 0] ------- [8388608:0 -1:0 32 0] 
s 40.000339577 _2_ AGT  --- 135 udp 48 [0 0 0 0] ------- [4194304:0 -1:0 32 0] 
r 40.009859714 _4_ AGT  --- 135 udp 68 [0 ffffffff 0 800] ------- [4194304:0 -1:0 31 0] 
s 40.009859714 _4_ AGT  --- 136 udp 52 [0 0 0 0] ------- [4194306:0 4194304:0 32 0] 
r 40.012015724 _2_ AGT  --- 136 udp 72 [14a 0 2 800] ------- [4194306:0 4194304:0 32 4194304] 
s 40.012015724 _2_ AGT  --- 136 udp 72 [14a 0 2 800] ------- [4194304:0 4194306:0 32 4194304] 
r 40.014511734 _4_ AGT  --- 136 udp 92 [14a 2 0 800] ------- [4194304:0 4194306:0 32 4194306] 
s 40.555880716 _3_ AGT  --- 137 udp 48 [0 0 0 0] ------- [8388608:0 -1:0 32 0] 
s 41.000339577 _2_ AGT  --- 138 udp 48 [0 0 0 0] ------- [4194304:0 -1:0 32 0] 
r 41.009565777 _4_ AGT  --- 138 udp 68 [0 ffffffff 0 800] ------- [4194304:0 -1:0 31 0] 
s 41.009565777 _4_ AGT  --- 139 udp 52 [0 0 0 0] ------- [4194306:0 4194304:0 32 0] 
r 41.011841787 _2_ AGT  --- 139 udp 72 [14a 0 2 800] ------- [4194306:0 4194304:0 32 4194304] 
s 41.011841787 _2_ AGT  --- 139 udp 72 [14a 0 2 800] ------- [4194304:0 4194306:0 32 4194304] 
r 41.014137797 _4_ AGT  --- 139 udp 92 [14a 2 0 800] ------- [4194304:0 4194306:0 32 4194306] 
s 41.555880716 _3_ AGT  --- 140 udp 48 [0 0 0 0] ------- [8388608:0 -1:0 32 0] 
s 42.000339577 _2_ AGT  --- 142 udp 48 [0 0 0 0] ------- [4194304:0 -1:0 32 0] 
r 42.010299395 _4_ AGT  --- 142 udp 68 [0 ffffffff 0 800] ------- [4194304:0 -1:0 31 0] 
s 42.010299395 _4_ AGT  --- 143 udp 52 [0 0 0 0] ------- [4194306:0 4194304:0 32 0] 
r 42.012595405 _2_ AGT  --- 143 udp 72 [14a 0 2 800] ------- [4194306:0 4194304:0 32 4194304] 
s 42.012595405 _2_ AGT  --- 143 udp 72 [14a 0 2 800] ------- [4194304:0 4194306:0 32 4194304] 
r 42.015291415 _4_ AGT  --- 143 udp 92 [14a 2 0 800] ------- [4194304:0 4194306:0 32 4194306] 
s 42.555880716 _3_ AGT  --- 144 udp 48 [0 0 0 0] ------- [8388608:0 -1:0 32 0] 
s 43.000339577 _2_ AGT  --- 145 udp 48 [0 0 0 0] ------- [4194304:0 -1:0 32 0] 
r 43.006490656 _4_ AGT  --- 145 udp 68 [0 ffffffff 0 800] ------- [4194304:0 -1:0 31 0] 
s 43.006490656 _4_ AGT  --- 146 udp 52 [0 0 0 0] ------- [4194306:0 4194304:0 32 0] 
r 43.008806666 _2_ AGT  --- 146 udp 72 [14a 0 2 800] ------- [4194306:0 4194304:0 32 4194304] 
s 43.008806666 _2_ AGT  --- 146 udp 72 [14a 0 2 800] ------- [4194304:0 4194306:0 32 4194304] 
r 43.011262676 _4_ AGT  --- 146 udp 92 [14a 2 0 800] ------- [4194304:0 4194306:0 32 4194306] 
s 43.555880716 _3_ AGT  --- 147 udp 48 [0 0 0 0] ------- [8388608:0 -1:0 32 0] 
s 44.000339577 _2_ AGT  --- 148 udp 48 [0 0 0 0] ------- [4194304:0 -1:0 32 0] 
r 44.007736219 _4_ AGT  --- 148 udp 68 [0 ffffffff 0 800] ------- [4194304:0 -1:0 31 0] 
s 44.007736219 _4_ AGT  --- 149 udp 52 [0 0 0 0] ------- [4194306:0 4194304:0 32 0] 
r 44.009832229 _2_ AGT  --- 149 udp 72 [14a 0 2 800] ------- [4194306:0 4194304:0 32 4194304] 
s 44.009832229 _2_ AGT  --- 149 udp 72 [14a 0 2 800] ------- [4194304:0 4194306:0 32 4194304] 
r 44.012468239 _4_ AGT  --- 149 udp 92 [14a 2 0 800] ------- [4194304:0 4194306:0 32 4194306] 
s 44.555880716 _3_ AGT  --- 150 udp 48 [0 0 0 0] ------- [8388608:0 -1:0 32 0] 
s 45.000339577 _2_ AGT  --- 151 udp 48 [0 0 0 0] ------- [4194304:0 -1:0 32 0] 
r 45.010599302 _4_ AGT  --- 151 udp 68 [0 ffffffff 0 800] ------- [4194304:0 -1:0 31 0] 
s 45.010599302 _4_ AGT  --- 152 udp 52 [0 0 0 0] ------- [4194306:0 4194304:0 32 0] 
r 45.012435312 _2_ AGT  --- 152 udp 72 [14a 0 2 800] ------- [4194306:0 4194304:0 32 4194304] 
s 45.012435312 _2_ AGT  --- 152 udp 72 [14a 0 2 800] ------- [4194304:0 4194306:0 32 4194304] 
r 45.015151322 _4_ AGT  --- 152 udp 92 [14a 2 0 800] ------- [4194304:0 4194306:0 32 4194306] 
s 45.555880716 _3_ AGT  --- 153 udp 48 [0 0 0 0] ------- [8388608:0 -1:0 32 0] 
s 46.000339577 _2_ AGT  --- 154 udp 48 [0 0 0 0] ------- [4194304:0 -1:0 32 0] 
r 46.002910994 _4_ AGT  --- 154 udp 68 [0 ffffffff 0 800] ------- [4194304:0 -1:0 31 0] 
s 46.002910994 _4_ AGT  --- 155 udp 52 [0 0 0 0] ------- [4194306:0 4194304:0 32 0] 
r 46.005127004 _2_ AGT  --- 155 udp 72 [14a 0 2 800] ------- [4194306:0 4194304:0 32 4194304] 
s 46.005127004 _2_ AGT  --- 155 udp 72 [14a 0 2 800] ------- [4194304:0 4194306:0 32 4194304] 
r 46.007503014 _4_ AGT  --- 155 udp 92 [14a 2 0 800] ------- [4194304:0 4194306:0 32 4194306] 
s 46.555880716 _3_ AGT  --- 156 udp 48 [0 0 0 0] ------- [8388608:0 -1:0 32 0] 
s 47.000339577 _2_ AGT  --- 157 udp 48 [0 0 0 0] ------- [4194304:0 -1:0 32 0] 
r 47.003957555 _4_ AGT  --- 157 udp 68 [0 ffffffff 0 800] ------- [4194304:0 -1:0 31 0] 
s 47.003957555 _4_ AGT  --- 158 udp 52 [0 0 0 0] ------- [4194306:0 4194304:0 32 0] 
r 47.005933565 _2_ AGT  --- 158 udp 72 [14a 0 2 800] ------- [4194306:0 4194304:0 32 4194304] 
s 47.005933565 _2_ AGT  --- 158 udp 72 [14a 0 2 800] ------- [4194304:0 4194306:0 32 4194304] 
r 47.008509575 _4_ AGT  --- 158 udp 92 [14a 2 0 800] ------- [4194304:0 4194306:0 32 4194306] 
s 47.555880716 _3_ AGT  --- 159 udp 48 [0 0 0 0] ------- [8388608:0 -1:0 32 0] 
s 48.000339577 _2_ AGT  --- 160 udp 48 [0 0 0 0] ------- [4194304:0 -1:0 32 0] 