M 0.0 nn:5 x:670 y:670 rp:dsdv
M 0.0 sc:../mobility/scene/scen-3-test cp: seed:0.0
M 0.0 prop:Propagation/TwoRayGround ant:Antenna/OmniAntenna
M 33.00000 4194305 (83.36, 239.44, 0.00), (89.66, 283.49), 19.15
M 50.00000 4194307 (591.26, 199.37, 0.00), (369.46, 170.52), 3.37
M 51.00000 4194306 (257.05, 345.36, 0.00), (221.83, 80.86), 14.91
r 160.037095502 _6_ AGT  --- 75 tcp 1460 [14a 4 3 800] ------- [2048:0 4194307:0 29 4194307] [0 0] 2 0
s 160.037095502 _6_ AGT  --- 76 ack 40 [0 0 0 0] ------- [4194307:0 2048:0 32 0] [0 0] 0 0
r 166.030500072 _6_ AGT  --- 78 tcp 1460 [14a 4 3 800] ------- [2048:0 4194307:0 29 4194307] [0 0] 2 0
s 166.030500072 _6_ AGT  --- 79 ack 40 [0 0 0 0] ------- [4194307:0 2048:0 32 0] [0 0] 0 0
r 178.030880072 _6_ AGT  --- 85 tcp 1460 [14a 4 3 800] ------- [2048:0 4194307:0 29 4194307] [0 0] 2 0
s 178.030880072 _6_ AGT  --- 86 ack 40 [0 0 0 0] ------- [4194307:0 2048:0 32 0] [0 0] 0 0
s 200.000000000 _4_ AGT  --- 96 tcp 1460 [0 0 0 0] ------- [4194305:1 0:1 32 0] [0 0] 0 0
r 202.031300072 _6_ AGT  --- 98 tcp 1460 [14a 4 3 800] ------- [2048:0 4194307:0 29 4194307] [0 0] 2 0
s 202.031300072 _6_ AGT  --- 99 ack 40 [0 0 0 0] ------- [4194307:0 2048:0 32 0] [0 0] 0 0
s 206.000000000 _4_ AGT  --- 100 tcp 1460 [0 0 0 0] ------- [4194305:1 0:1 32 0] [0 0] 0 0
s 218.000000000 _4_ AGT  --- 106 tcp 1460 [0 0 0 0] ------- [4194305:1 0:1 32 0] [0 0] 0 0
r 218.046511754 _4_ AGT  --- 107 ack 40 [14a 2 3 800] ------- [0:1 4194305:1 28 4194305] [0 0] 2 0
s 218.046511754 _4_ AGT  --- 108 tcp 1460 [0 0 0 0] ------- [4194305:1 0:1 32 0] [1 0] 0 0
s 218.046511754 _4_ AGT  --- 109 tcp 1460 [0 0 0 0] ------- [4194305:1 0:1 32 0] [2 0] 0 0
r 218.105167634 _4_ AGT  --- 110 ack 40 [14a 2 3 800] ------- [0:1 4194305:1 28 4194305] [1 0] 2 0
s 218.105167634 _4_ AGT  --- 111 tcp 1460 [0 0 0 0] ------- [4194305:1 0:1 32 0] [3 0] 0 0
r 218.136317163 _4_ AGT  --- 112 ack 40 [14a 2 3 800] ------- [0:1 4194305:1 28 4194305] [2 0] 2 0
s 218.136317163 _4_ AGT  --- 113 tcp 1460 [0 0 0 0] ------- [4194305:1 0:1 32 0] [4 0] 0 0
r 218.167206691 _4_ AGT  --- 114 ack 40 [14a 2 3 800] ------- [0:1 4194305:1 28 4194305] [3 0] 2 0
s 218.167206691 _4_ AGT  --- 115 tcp 1460 [0 0 0 0] ------- [4194305:1 0:1 32 0] [5 0] 0 0
s 218.167206691 _4_ AGT  --- 116 tcp 1460 [0 0 0 0] ------- [4194305:1 0:1 32 0] [6 0] 0 0
r 218.198136219 _4_ AGT  --- 117 ack 40 [14a 2 3 800] ------- [0:1 4194305:1 28 4194305] [4 0] 2 0
s 218.198136219 _4_ AGT  --- 118 tcp 1460 [0 0 0 0] ------- [4194305:1 0:1 32 0] [7 0] 0 0
r 218.258564622 _4_ AGT  --- 119 ack 40 [14a 2 3 800] ------- [0:1 4194305:1 28 4194305] [5 0] 2 0
s 218.258564622 _4_ AGT  --- 121 tcp 1460 [0 0 0 0] ------- [4194305:1 0:1 32 0] [8 0] 0 0
r 218.274269460 _4_ AGT  --- 120 ack 40 [14a 2 3 800] ------- [0:1 4194305:1 28 4194305] [6 0] 2 0
s 218.274269460 _4_ AGT  --- 123 tcp 1460 [0 0 0 0] ------- [4194305:1 0:1 32 0] [9 0] 0 0
s 218.274269460 _4_ AGT  --- 124 tcp 1460 [0 0 0 0] ------- [4194305:1 0:1 32 0] [10 0] 0 0
r 218.336350385 _4_ AGT  --- 122 ack 40 [14a 2 3 800] ------- [0:1 4194305:1 28 4194305] [7 0] 2 0
s 218.336350385 _4_ AGT  --- 127 tcp 1460 [0 0 0 0] ------- [4194305:1 0:1 32 0] [11 0] 0 0
r 218.338233611 _4_ AGT  --- 125 ack 40 [14a 2 3 800] ------- [0:1 4194305:1 28 4194305] [8 0] 2 0
s 218.338233611 _4_ AGT  --- 128 tcp 1460 [0 0 0 0] ------- [4194305:1 0:1 32 0] [12 0] 0 0
r 218.381084802 _4_ AGT  --- 126 ack 40 [14a 2 3 800] ------- [0:1 4194305:1 28 4194305] [9 0] 2 0
s 218.381084802 _4_ AGT  --- 129 tcp 1460 [0 0 0 0] ------- [4194305:1 0:1 32 0] [13 0] 0 0
r 218.443163709 _4_ AGT  --- 130 ack 40 [14a 2 3 800] ------- [0:1 4194305:1 28 4194305] [10 0] 2 0
s 218.443163709 _4_ AGT  --- 133 tcp 1460 [0 0 0 0] ------- [4194305:1 0:1 32 0] [14 0] 0 0
r 218.458888548 _4_ AGT  --- 131 ack 40 [14a 2 3 800] ------- [0:1 4194305:1 28 4194305] [11 0] 2 0
s 218.458888548 _4_ AGT  --- 135 tcp 1460 [0 0 0 0] ------- [4194305:1 0:1 32 0] [15 0] 0 0
s 218.458888548 _4_ AGT  --- 136 tcp 1460 [0 0 0 0] ------- [4194305:1 0:1 32 0] [16 0] 0 0
r 218.474633386 _4_ AGT  --- 132 ack 40 [14a 2 3 800] ------- [0:1 4194305:1 28 4194305] [12 0] 2 0
s 218.474633386 _4_ AGT  --- 137 tcp 1460 [0 0 0 0] ------- [4194305:1 0:1 32 0] [17 0] 0 0
r 218.550244915 _4_ AGT  --- 134 ack 40 [14a 2 3 800] ------- [0:1 4194305:1 28 4194305] [13 0] 2 0
s 218.550244915 _4_ AGT  --- 140 tcp 1460 [0 0 0 0] ------- [4194305:1 0:1 32 0] [18 0] 0 0
r 218.581545403 _4_ AGT  --- 138 ack 40 [14a 2 3 800] ------- [0:1 4194305:1 28 4194305] [14 0] 2 0
s 218.581545403 _4_ AGT  --- 142 tcp 1460 [0 0 0 0] ------- [4194305:1 0:1 32 0] [19 0] 0 0
r 218.583508628 _4_ AGT  --- 139 ack 40 [14a 2 3 800] ------- [0:1 4194305:1 28 4194305] [15 0] 2 0
s 218.583508628 _4_ AGT  --- 143 tcp 1460 [0 0 0 0] ------- [4194305:1 0:1 32 0] [20 0] 0 0
r 218.630183300 _4_ AGT  --- 141 ack 40 [14a 2 3 800] ------- [0:1 4194305:1 28 4194305] [16 0] 2 0
s 218.630183300 _4_ AGT  --- 146 tcp 1460 [0 0 0 0] ------- [4194305:1 0:1 32 0] [21 0] 0 0
s 218.630183300 _4_ AGT  --- 147 tcp 1460 [0 0 0 0] ------- [4194305:1 0:1 32 0] [22 0] 0 0
r 218.645649652 _4_ AGT  --- 144 ack 40 [14a 2 3 800] ------- [0:1 4194305:1 28 4194305] [17 0] 2 0
s 218.645649652 _4_ AGT  --- 148 tcp 1460 [0 0 0 0] ------- [4194305:1 0:1 32 0] [23 0] 0 0
r 218.688140843 _4_ AGT  --- 145 ack 40 [14a 2 3 800] ------- [0:1 4194305:1 28 4194305] [18 0] 2 0
s 218.688140843 _4_ AGT  --- 150 tcp 1460 [0 0 0 0] ------- [4194305:1 0:1 32 0] [24 0] 0 0
r 218.764153935 _4_ AGT  --- 149 ack 40 [14a 2 3 800] ------- [0:1 4194305:1 28 4194305] [19 0] 2 0
s 218.764153935 _4_ AGT  --- 155 tcp 1460 [0 0 0 0] ------- [4194305:1 0:1 32 0] [25 0] 0 0
r 218.766157161 _4_ AGT  --- 151 ack 40 [14a 2 3 800] ------- [0:1 4194305:1 28 4194305] [20 0] 2 0
s 218.766157161 _4_ AGT  --- 156 tcp 1460 [0 0 0 0] ------- [4194305:1 0:1 32 0] [26 0] 0 0
r 218.768000387 _4_ AGT  --- 152 ack 40 [14a 2 3 800] ------- [0:1 4194305:1 28 4194305] [21 0] 2 0
s 218.768000387 _4_ AGT  --- 157 tcp 1460 [0 0 0 0] ------- [4194305:1 0:1 32 0] [27 0] 0 0
r 218.814774605 _4_ AGT  --- 153 ack 40 [14a 2 3 800] ------- [0:1 4194305:1 28 4194305] [22 0] 2 0
s 218.814774605 _4_ AGT  --- 159 tcp 1460 [0 0 0 0] ------- [4194305:1 0:1 32 0] [28 0] 0 0
s 218.814774605 _4_ AGT  --- 160 tcp 1460 [0 0 0 0] ------- [4194305:1 0:1 32 0] [29 0] 0 0
r 218.830119443 _4_ AGT  --- 154 ack 40 [14a 2 3 800] ------- [0:1 4194305:1 28 4194305] [23 0] 2 0
s 218.830119443 _4_ AGT  --- 162 tcp 1460 [0 0 0 0] ------- [4194305:1 0:1 32 0] [30 0] 0 0
r 218.874552098 _4_ AGT  --- 158 ack 40 [14a 2 3 800] ------- [0:1 4194305:1 28 4194305] [24 0] 2 0
s 218.874552098 _4_ AGT  --- 164 tcp 1460 [0 0 0 0] ------- [4194305:1 0:1 32 0] [31 0] 0 0
r 218.987618683 _4_ AGT  --- 161 ack 40 [14a 2 3 800] ------- [0:1 4194305:1 28 4194305] [25 0] 2 0
s 218.987618683 _4_ AGT  --- 169 tcp 1460 [0 0 0 0] ------- [4194305:1 0:1 32 0] [32 0] 0 0
r 219.018719170 _4_ AGT  --- 163 ack 40 [14a 2 3 800] ------- [0:1 4194305:1 28 4194305] [26 0] 2 0
s 219.018719170 _4_ AGT  --- 171 tcp 1460 [0 0 0 0] ------- [4194305:1 0:1 32 0] [33 0] 0 0
r 219.053844347 _4_ AGT  --- 165 ack 40 [14a 2 3 800] ------- [0:1 4194305:1 28 4194305] [27 0] 2 0
s 219.053844347 _4_ AGT  --- 173 tcp 1460 [0 0 0 0] ------- [4194305:1 0:1 32 0] [34 0] 0 0
r 219.055907572 _4_ AGT  --- 166 ack 40 [14a 2 3 800] ------- [0:1 4194305:1 28 4194305] [28 0] 2 0
s 219.055907572 _4_ AGT  --- 174 tcp 1460 [0 0 0 0] ------- [4194305:1 0:1 32 0] [35 0] 0 0
r 219.057750798 _4_ AGT  --- 167 ack 40 [14a 2 3 800] ------- [0:1 4194305:1 28 4194305] [29 0] 2 0
s 219.057750798 _4_ AGT  --- 176 tcp 1460 [0 0 0 0] ------- [4194305:1 0:1 32 0] [36 0] 0 0
r 219.131011822 _4_ AGT  --- 168 ack 40 [14a 2 3 800] ------- [0:1 4194305:1 28 4194305] [30 0] 2 0
s 219.131011822 _4_ AGT  --- 178 tcp 1460 [0 0 0 0] ------- [4194305:1 0:1 32 0] [37 0] 0 0
s 219.131011822 _4_ AGT  --- 179 tcp 1460 [0 0 0 0] ------- [4194305:1 0:1 32 0] [38 0] 0 0
r 219.146658174 _4_ AGT  --- 170 ack 40 [14a 2 3 800] ------- [0:1 4194305:1 28 4194305] [31 0] 2 0
s 219.146658174 _4_ AGT  --- 181 tcp 1460 [0 0 0 0] ------- [4194305:1 0:1 32 0] [39 0] 0 0
r 219.193232846 _4_ AGT  --- 172 ack 40 [14a 2 3 800] ------- [0:1 4194305:1 28 4194305] [32 0] 2 0
s 219.193232846 _4_ AGT  --- 184 tcp 1460 [0 0 0 0] ------- [4194305:1 0:1 32 0] [40 0] 0 0
r 219.195096072 _4_ AGT  --- 175 ack 40 [14a 2 3 800] ------- [0:1 4194305:1 28 4194305] [33 0] 2 0
s 219.195096072 _4_ AGT  --- 185 tcp 1460 [0 0 0 0] ------- [4194305:1 0:1 32 0] [41 0] 0 0
r 219.226196609 _4_ AGT  --- 177 ack 40 [14a 2 3 800] ------- [0:1 4194305:1 28 4194305] [34 0] 2 0
s 219.226196609 _4_ AGT  --- 187 tcp 1460 [0 0 0 0] ------- [4194305:1 0:1 32 0] [42 0] 0 0
r 219.272483349 _4_ AGT  --- 180 ack 40 [14a 2 3 800] ------- [0:1 4194305:1 28 4194305] [35 0] 2 0
s 219.272483349 _4_ AGT  --- 189 tcp 1460 [0 0 0 0] ------- [4194305:1 0:1 32 0] [43 0] 0 0
r 219.289860710 _4_ AGT  --- 182 ack 40 [14a 2 3 800] ------- [0:1 4194305:1 28 4194305] [36 0] 2 0
s 219.289860710 _4_ AGT  --- 191 tcp 1460 [0 0 0 0] ------- [4194305:1 0:1 32 0] [44 0] 0 0
r 219.318868675 _4_ AGT  --- 183 ack 40 [14a 2 3 800] ------- [0:1 4194305:1 28 4194305] [37 0] 2 0
s 219.318868675 _4_ AGT  --- 192 tcp 1460 [0 0 0 0] ------- [4194305:1 0:1 32 0] [45 0] 0 0
r 219.363232437 _4_ AGT  --- 186 ack 40 [14a 2 3 800] ------- [0:1 4194305:1 28 4194305] [38 0] 2 0
s 219.363232437 _4_ AGT  --- 195 tcp 1460 [0 0 0 0] ------- [4194305:1 0:1 32 0] [46 0] 0 0
s 219.363232437 _4_ AGT  --- 196 tcp 1460 [0 0 0 0] ------- [4194305:1 0:1 32 0] [47 0] 0 0
r 219.452128656 _4_ AGT  --- 188 ack 40 [14a 2 3 800] ------- [0:1 4194305:1 28 4194305] [39 0] 2 0
s 219.452128656 _4_ AGT  --- 200 tcp 1460 [0 0 0 0] ------- [4194305:1 0:1 32 0] [48 0] 0 0
r 219.469586017 _4_ AGT  --- 190 ack 40 [14a 2 3 800] ------- [0:1 4194305:1 28 4194305] [40 0] 2 0
s 219.469586017 _4_ AGT  --- 202 tcp 1460 [0 0 0 0] ------- [4194305:1 0:1 32 0] [49 0] 0 0
r 219.485130855 _4_ AGT  --- 193 ack 40 [14a 2 3 800] ------- [0:1 4194305:1 28 4194305] [41 0] 2 0
s 219.485130855 _4_ AGT  --- 203 tcp 1460 [0 0 0 0] ------- [4194305:1 0:1 32 0] [50 0] 0 0
r 219.517854519 _4_ AGT  --- 194 ack 40 [14a 2 3 800] ------- [0:1 4194305:1 28 4194305] [42 0] 2 0
s 219.517854519 _4_ AGT  --- 205 tcp 1460 [0 0 0 0] ------- [4194305:1 0:1 32 0] [51 0] 0 0
r 219.535522434 _4_ AGT  --- 197 ack 40 [14a 2 3 800] ------- [0:1 4194305:1 28 4194305] [43 0] 2 0
s 219.535522434 _4_ AGT  --- 206 tcp 1460 [0 0 0 0] ------- [4194305:1 0:1 32 0] [52 0] 0 0
r 219.537425660 _4_ AGT  --- 198 ack 40 [14a 2 3 800] ------- [0:1 4194305:1 28 4194305] [44 0] 2 0
s 219.537425660 _4_ AGT  --- 207 tcp 1460 [0 0 0 0] ------- [4194305:1 0:1 32 0] [53 0] 0 0
r 219.585823458 _4_ AGT  --- 199 ack 40 [14a 2 3 800] ------- [0:1 4194305:1 28 4194305] [45 0] 2 0
s 219.585823458 _4_ AGT  --- 210 tcp 1460 [0 0 0 0] ------- [4194305:1 0:1 32 0] [54 0] 0 0
r 219.601389810 _4_ AGT  --- 201 ack 40 [14a 2 3 800] ------- [0:1 4194305:1 28 4194305] [46 0] 2 0
s 219.601389810 _4_ AGT  --- 211 tcp 1460 [0 0 0 0] ------- [4194305:1 0:1 32 0] [55 0] 0 0
r 219.618987171 _4_ AGT  --- 204 ack 40 [14a 2 3 800] ------- [0:1 4194305:1 28 4194305] [47 0] 2 0
s 219.618987171 _4_ AGT  --- 213 tcp 1460 [0 0 0 0] ------- [4194305:1 0:1 32 0] [56 0] 0 0
r 219.620970397 _4_ AGT  --- 208 ack 40 [14a 2 3 800] ------- [0:1 4194305:1 28 4194305] [48 0] 2 0
s 219.620970397 _4_ AGT  --- 214 tcp 1460 [0 0 0 0] ------- [4194305:1 0:1 32 0] [57 0] 0 0
s 219.620970397 _4_ AGT  --- 215 tcp 1460 [0 0 0 0] ------- [4194305:1 0:1 32 0] [58 0] 0 0
r 219.681348195 _4_ AGT  --- 209 ack 40 [14a 2 3 800] ------- [0:1 4194305:1 28 4194305] [49 0] 2 0
s 219.681348195 _4_ AGT  --- 217 tcp 1460 [0 0 0 0] ------- [4194305:1 0:1 32 0] [59 0] 0 0
r 219.696674547 _4_ AGT  --- 212 ack 40 [14a 2 3 800] ------- [0:1 4194305:1 28 4194305] [50 0] 2 0
s 219.696674547 _4_ AGT  --- 219 tcp 1460 [0 0 0 0] ------- [4194305:1 0:1 32 0] [60 0] 0 0
r 219.743310427 _4_ AGT  --- 216 ack 40 [14a 2 3 800] ------- [0:1 4194305:1 28 4194305] [51 0] 2 0
s 219.743310427 _4_ AGT  --- 221 tcp 1460 [0 0 0 0] ------- [4194305:1 0:1 32 0] [61 0] 0 0
r 219.829498759 _4_ AGT  --- 218 ack 40 [14a 2 3 800] ------- [0:1 4194305:1 28 4194305] [52 0] 2 0
s 219.829498759 _4_ AGT  --- 225 tcp 1460 [0 0 0 0] ------- [4194305:1 0:1 32 0] [62 0] 0 0
r 219.831481985 _4_ AGT  --- 220 ack 40 [14a 2 3 800] ------- [0:1 4194305:1 28 4194305] [53 0] 2 0
s 219.831481985 _4_ AGT  --- 226 tcp 1460 [0 0 0 0] ------- [4194305:1 0:1 32 0] [63 0] 0 0
r 219.911669885 _4_ AGT  --- 222 ack 40 [14a 2 3 800] ------- [0:1 4194305:1 28 4194305] [54 0] 2 0
s 219.911669885 _4_ AGT  --- 231 tcp 1460 [0 0 0 0] ------- [4194305:1 0:1 32 0] [64 0] 0 0
r 219.956542993 _4_ AGT  --- 224 ack 40 [14a 2 3 800] ------- [0:1 4194305:1 28 4194305] [55 0] 2 0
s 219.956542993 _4_ AGT  --- 233 tcp 1460 [0 0 0 0] ------- [4194305:1 0:1 32 0] [65 0] 0 0
r 219.972087832 _4_ AGT  --- 227 ack 40 [14a 2 3 800] ------- [0:1 4194305:1 28 4194305] [56 0] 2 0
s 219.972087832 _4_ AGT  --- 235 tcp 1460 [0 0 0 0] ------- [4194305:1 0:1 32 0] [66 0] 0 0
r 220.001215896 _4_ AGT  --- 228 ack 40 [14a 2 3 800] ------- [0:1 4194305:1 28 4194305] [57 0] 2 0
s 220.001215896 _4_ AGT  --- 236 tcp 1460 [0 0 0 0] ------- [4194305:1 0:1 32 0] [67 0] 0 0
r 220.018733257 _4_ AGT  --- 229 ack 40 [14a 2 3 800] ------- [0:1 4194305:1 28 4194305] [58 0] 2 0
s 220.018733257 _4_ AGT  --- 237 tcp 1460 [0 0 0 0] ------- [4194305:1 0:1 32 0] [68 0] 0 0
s 220.018733257 _4_ AGT  --- 238 tcp 1460 [0 0 0 0] ------- [4194305:1 0:1 32 0] [69 0] 0 0
r 220.034198096 _4_ AGT  --- 230 ack 40 [14a 2 3 800] ------- [0:1 4194305:1 28 4194305] [59 0] 2 0
s 220.034198096 _4_ AGT  --- 239 tcp 1460 [0 0 0 0] ------- [4194305:1 0:1 32 0] [70 0] 0 0
r 220.062946061 _4_ AGT  --- 232 ack 40 [14a 2 3 800] ------- [0:1 4194305:1 28 4194305] [60 0] 2 0
s 220.062946061 _4_ AGT  --- 240 tcp 1460 [0 0 0 0] ------- [4194305:1 0:1 32 0] [71 0] 0 0
r 220.169688532 _4_ AGT  --- 234 ack 40 [14a 2 3 800] ------- [0:1 4194305:1 28 4194305] [61 0] 2 0
s 220.169688532 _4_ AGT  --- 246 tcp 1460 [0 0 0 0] ------- [4194305:1 0:1 32 0] [72 0] 0 0
r 220.230027440 _4_ AGT  --- 241 ack 40 [14a 2 3 800] ------- [0:1 4194305:1 28 4194305] [62 0] 2 0
s 220.230027440 _4_ AGT  --- 250 tcp 1460 [0 0 0 0] ------- [4194305:1 0:1 32 0] [73 0] 0 0
r 220.245652279 _4_ AGT  --- 242 ack 40 [14a 2 3 800] ------- [0:1 4194305:1 28 4194305] [63 0] 2 0
s 220.245652279 _4_ AGT  --- 252 tcp 1460 [0 0 0 0] ------- [4194305:1 0:1 32 0] [74 0] 0 0
r 220.278474329 _4_ AGT  --- 243 ack 40 [14a 2 3 800] ------- [0:1 4194305:1 28 4194305] [64 0] 2 0
s 220.278474329 _4_ AGT  --- 253 tcp 1460 [0 0 0 0] ------- [4194305:1 0:1 32 0] [75 0] 0 0
r 220.294119168 _4_ AGT  --- 244 ack 40 [14a 2 3 800] ------- [0:1 4194305:1 28 4194305] [65 0] 2 0
s 220.294119168 _4_ AGT  --- 255 tcp 1460 [0 0 0 0] ------- [4194305:1 0:1 32 0] [76 0] 0 0
r 220.309744006 _4_ AGT  --- 245 ack 40 [14a 2 3 800] ------- [0:1 4194305:1 28 4194305] [66 0] 2 0
s 220.309744006 _4_ AGT  --- 256 tcp 1460 [0 0 0 0] ------- [4194305:1 0:1 32 0] [77 0] 0 0
r 220.327231921 _4_ AGT  --- 247 ack 40 [14a 2 3 800] ------- [0:1 4194305:1 28 4194305] [67 0] 2 0
s 220.327231921 _4_ AGT  --- 257 tcp 1460 [0 0 0 0] ------- [4194305:1 0:1 32 0] [78 0] 0 0
r 220.342756760 _4_ AGT  --- 248 ack 40 [14a 2 3 800] ------- [0:1 4194305:1 28 4194305] [68 0] 2 0
s 220.342756760 _4_ AGT  --- 259 tcp 1460 [0 0 0 0] ------- [4194305:1 0:1 32 0] [79 0] 0 0
r 220.387029415 _4_ AGT  --- 249 ack 40 [14a 2 3 800] ------- [0:1 4194305:1 28 4194305] [69 0] 2 0
s 220.387029415 _4_ AGT  --- 261 tcp 1460 [0 0 0 0] ------- [4194305:1 0:1 32 0] [80 0] 0 0
r 220.402594253 _4_ AGT  --- 251 ack 40 [14a 2 3 800] ------- [0:1 4194305:1 28 4194305] [70 0] 2 0
s 220.402594253 _4_ AGT  --- 263 tcp 1460 [0 0 0 0] ------- [4194305:1 0:1 32 0] [81 0] 0 0
s 220.402594253 _4_ AGT  --- 264 tcp 1460 [0 0 0 0] ------- [4194305:1 0:1 32 0] [82 0] 0 0
r 220.464355178 _4_ AGT  --- 254 ack 40 [14a 2 3 800] ------- [0:1 4194305:1 28 4194305] [71 0] 2 0
s 220.464355178 _4_ AGT  --- 267 tcp 1460 [0 0 0 0] ------- [4194305:1 0:1 32 0] [83 0] 0 0
r 220.524582017 _4_ AGT  --- 258 ack 40 [14a 2 3 800] ------- [0:1 4194305:1 28 4194305] [72 0] 2 0
s 220.524582017 _4_ AGT  --- 270 tcp 1460 [0 0 0 0] ------- [4194305:1 0:1 32 0] [84 0] 0 0
r 220.571407244 _4_ AGT  --- 260 ack 40 [14a 2 3 800] ------- [0:1 4194305:1 28 4194305] [73 0] 2 0
s 220.571407244 _4_ AGT  --- 272 tcp 1460 [0 0 0 0] ------- [4194305:1 0:1 32 0] [85 0] 0 0
r 220.602987731 _4_ AGT  --- 262 ack 40 [14a 2 3 800] ------- [0:1 4194305:1 28 4194305] [74 0] 2 0
s 220.602987731 _4_ AGT  --- 274 tcp 1460 [0 0 0 0] ------- [4194305:1 0:1 32 0] [86 0] 0 0
r 220.605010957 _4_ AGT  --- 265 ack 40 [14a 2 3 800] ------- [0:1 4194305:1 28 4194305] [75 0] 2 0
s 220.605010957 _4_ AGT  --- 275 tcp 1460 [0 0 0 0] ------- [4194305:1 0:1 32 0] [87 0] 0 0
r 220.636071444 _4_ AGT  --- 266 ack 40 [14a 2 3 800] ------- [0:1 4194305:1 28 4194305] [76 0] 2 0
s 220.636071444 _4_ AGT  --- 277 tcp 1460 [0 0 0 0] ------- [4194305:1 0:1 32 0] [88 0] 0 0
r 220.651396283 _4_ AGT  --- 268 ack 40 [14a 2 3 800] ------- [0:1 4194305:1 28 4194305] [77 0] 2 0
s 220.651396283 _4_ AGT  --- 279 tcp 1460 [0 0 0 0] ------- [4194305:1 0:1 32 0] [89 0] 0 0
r 220.683976383 _4_ AGT  --- 269 ack 40 [14a 2 3 800] ------- [0:1 4194305:1 28 4194305] [78 0] 2 0
s 220.683976383 _4_ AGT  --- 280 tcp 1460 [0 0 0 0] ------- [4194305:1 0:1 32 0] [90 0] 0 0
r 220.715076920 _4_ AGT  --- 271 ack 40 [14a 2 3 800] ------- [0:1 4194305:1 28 4194305] [79 0] 2 0
s 220.715076920 _4_ AGT  --- 283 tcp 1460 [0 0 0 0] ------- [4194305:1 0:1 32 0] [91 0] 0 0
r 220.732524835 _4_ AGT  --- 273 ack 40 [14a 2 3 800] ------- [0:1 4194305:1 28 4194305] [80 0] 2 0
s 220.732524835 _4_ AGT  --- 284 tcp 1460 [0 0 0 0] ------- [4194305:1 0:1 32 0] [92 0] 0 0
r 220.777097589 _4_ AGT  --- 276 ack 40 [14a 2 3 800] ------- [0:1 4194305:1 28 4194305] [81 0] 2 0
s 220.777097589 _4_ AGT  --- 286 tcp 1460 [0 0 0 0] ------- [4194305:1 0:1 32 0] [93 0] 0 0
r 220.792823941 _4_ AGT  --- 278 ack 40 [14a 2 3 800] ------- [0:1 4194305:1 28 4194305] [82 0] 2 0
s 220.792823941 _4_ AGT  --- 288 tcp 1460 [0 0 0 0] ------- [4194305:1 0:1 32 0] [94 0] 0 0
s 220.792823941 _4_ AGT  --- 289 tcp 1460 [0 0 0 0] ------- [4194305:1 0:1 32 0] [95 0] 0 0
r 220.825725991 _4_ AGT  --- 281 ack 40 [14a 2 3 800] ------- [0:1 4194305:1 28 4194305] [83 0] 2 0
s 220.825725991 _4_ AGT  --- 291 tcp 1460 [0 0 0 0] ------- [4194305:1 0:1 32 0] [96 0] 0 0
r 220.856646528 _4_ AGT  --- 282 ack 40 [14a 2 3 800] ------- [0:1 4194305:1 28 4194305] [84 0] 2 0
s 220.856646528 _4_ AGT  --- 294 tcp 1460 [0 0 0 0] ------- [4194305:1 0:1 32 0] [97 0] 0 0
r 220.885756007 _4_ AGT  --- 285 ack 40 [14a 2 3 800] ------- [0:1 4194305:1 28 4194305] [85 0] 2 0
s 220.885756007 _4_ AGT  --- 296 tcp 1460 [0 0 0 0] ------- [4194305:1 0:1 32 0] [98 0] 0 0
r 220.918528662 _4_ AGT  --- 287 ack 40 [14a 2 3 800] ------- [0:1 4194305:1 28 4194305] [86 0] 2 0
s 220.918528662 _4_ AGT  --- 298 tcp 1460 [0 0 0 0] ------- [4194305:1 0:1 32 0] [99 0] 0 0
r 220.920411887 _4_ AGT  --- 290 ack 40 [14a 2 3 800] ------- [0:1 4194305:1 28 4194305] [87 0] 2 0
s 220.920411887 _4_ AGT  --- 299 tcp 1460 [0 0 0 0] ------- [4194305:1 0:1 32 0] [100 0] 0 0
r 220.922615113 _4_ AGT  --- 292 ack 40 [14a 2 3 800] ------- [0:1 4194305:1 28 4194305] [88 0] 2 0
s 220.922615113 _4_ AGT  --- 301 tcp 1460 [0 0 0 0] ------- [4194305:1 0:1 32 0] [101 0] 0 0
r 220.984834475 _4_ AGT  --- 293 ack 40 [14a 2 3 800] ------- [0:1 4194305:1 28 4194305] [89 0] 2 0
s 220.984834475 _4_ AGT  --- 303 tcp 1460 [0 0 0 0] ------- [4194305:1 0:1 32 0] [102 0] 0 0
r 221.013782539 _4_ AGT  --- 295 ack 40 [14a 2 3 800] ------- [0:1 4194305:1 28 4194305] [90 0] 2 0
s 221.013782539 _4_ AGT  --- 305 tcp 1460 [0 0 0 0] ------- [4194305:1 0:1 32 0] [103 0] 0 0
r 221.072067914 _4_ AGT  --- 297 ack 40 [14a 2 3 800] ------- [0:1 4194305:1 28 4194305] [91 0] 2 0
s 221.072067914 _4_ AGT  --- 307 tcp 1460 [0 0 0 0] ------- [4194305:1 0:1 32 0] [104 0] 0 0
r 221.077052266 _4_ AGT  --- 300 ack 40 [14a 2 3 800] ------- [0:1 4194305:1 28 4194305] [92 0] 2 0
s 221.077052266 _4_ AGT  --- 308 tcp 1460 [0 0 0 0] ------- [4194305:1 0:1 32 0] [105 0] 0 0
r 221.092718619 _4_ AGT  --- 302 ack 40 [14a 2 3 800] ------- [0:1 4194305:1 28 4194305] [93 0] 2 0
s 221.092718619 _4_ AGT  --- 309 tcp 1460 [0 0 0 0] ------- [4194305:1 0:1 32 0] [106 0] 0 0
r 221.197599626 _4_ AGT  --- 304 ack 40 [14a 2 3 800] ------- [0:1 4194305:1 28 4194305] [94 0] 2 0
s 221.197599626 _4_ AGT  --- 314 tcp 1460 [0 0 0 0] ------- [4194305:1 0:1 32 0] [107 0] 0 0
r 221.240030817 _4_ AGT  --- 306 ack 40 [14a 2 3 800] ------- [0:1 4194305:1 28 4194305] [95 0] 2 0
s 221.240030817 _4_ AGT  --- 316 tcp 1460 [0 0 0 0] ------- [4194305:1 0:1 32 0] [108 0] 0 0
s 221.240030817 _4_ AGT  --- 317 tcp 1460 [0 0 0 0] ------- [4194305:1 0:1 32 0] [109 0] 0 0
r 221.304949355 _4_ AGT  --- 310 ack 40 [14a 2 3 800] ------- [0:1 4194305:1 28 4194305] [96 0] 2 0
s 221.304949355 _4_ AGT  --- 321 tcp 1460 [0 0 0 0] ------- [4194305:1 0:1 32 0] [110 0] 0 0
r 221.320395707 _4_ AGT  --- 311 ack 40 [14a 2 3 800] ------- [0:1 4194305:1 28 4194305] [97 0] 2 0
s 221.320395707 _4_ AGT  --- 322 tcp 1460 [0 0 0 0] ------- [4194305:1 0:1 32 0] [111 0] 0 0
r 221.338013068 _4_ AGT  --- 312 ack 40 [14a 2 3 800] ------- [0:1 4194305:1 28 4194305] [98 0] 2 0
s 221.338013068 _4_ AGT  --- 324 tcp 1460 [0 0 0 0] ------- [4194305:1 0:1 32 0] [112 0] 0 0
r 221.382236880 _4_ AGT  --- 313 ack 40 [14a 2 3 800] ------- [0:1 4194305:1 28 4194305] [99 0] 2 0
s 221.382236880 _4_ AGT  --- 325 tcp 1460 [0 0 0 0] ------- [4194305:1 0:1 32 0] [113 0] 0 0
r 221.426820543 _4_ AGT  --- 315 ack 40 [14a 2 3 800] ------- [0:1 4194305:1 28 4194305] [100 0] 2 0
s 221.426820543 _4_ AGT  --- 328 tcp 1460 [0 0 0 0] ------- [4194305:1 0:1 32 0] [114 0] 0 0
r 221.428843769 _4_ AGT  --- 318 ack 40 [14a 2 3 800] ------- [0:1 4194305:1 28 4194305] [101 0] 2 0
s 221.428843769 _4_ AGT  --- 329 tcp 1460 [0 0 0 0] ------- [4194305:1 0:1 32 0] [115 0] 0 0
r 221.459904256 _4_ AGT  --- 319 ack 40 [14a 2 3 800] ------- [0:1 4194305:1 28 4194305] [102 0] 2 0
s 221.459904256 _4_ AGT  --- 330 tcp 1460 [0 0 0 0] ------- [4194305:1 0:1 32 0] [116 0] 0 0
r 221.520003263 _4_ AGT  --- 320 ack 40 [14a 2 3 800] ------- [0:1 4194305:1 28 4194305] [103 0] 2 0
s 221.520003263 _4_ AGT  --- 333 tcp 1460 [0 0 0 0] ------- [4194305:1 0:1 32 0] [117 0] 0 0
r 221.579702170 _4_ AGT  --- 323 ack 40 [14a 2 3 800] ------- [0:1 4194305:1 28 4194305] [104 0] 2 0
s 221.579702170 _4_ AGT  --- 337 tcp 1460 [0 0 0 0] ------- [4194305:1 0:1 32 0] [118 0] 0 0
r 221.595447009 _4_ AGT  --- 326 ack 40 [14a 2 3 800] ------- [0:1 4194305:1 28 4194305] [105 0] 2 0
s 221.595447009 _4_ AGT  --- 339 tcp 1460 [0 0 0 0] ------- [4194305:1 0:1 32 0] [119 0] 0 0
r 221.643620790 _4_ AGT  --- 327 ack 40 [14a 2 3 800] ------- [0:1 4194305:1 28 4194305] [106 0] 2 0
s 221.643620790 _4_ AGT  --- 341 tcp 1460 [0 0 0 0] ------- [4194305:1 0:1 32 0] [120 0] 0 0
r 221.692047530 _4_ AGT  --- 331 ack 40 [14a 2 3 800] ------- [0:1 4194305:1 28 4194305] [107 0] 2 0
s 221.692047530 _4_ AGT  --- 344 tcp 1460 [0 0 0 0] ------- [4194305:1 0:1 32 0] [121 0] 0 0
r 221.693990756 _4_ AGT  --- 332 ack 40 [14a 2 3 800] ------- [0:1 4194305:1 28 4194305] [108 0] 2 0
s 221.693990756 _4_ AGT  --- 345 tcp 1460 [0 0 0 0] ------- [4194305:1 0:1 32 0] [122 0] 0 0
r 221.709717108 _4_ AGT  --- 334 ack 40 [14a 2 3 800] ------- [0:1 4194305:1 28 4194305] [109 0] 2 0
s 221.709717108 _4_ AGT  --- 347 tcp 1460 [0 0 0 0] ------- [4194305:1 0:1 32 0] [123 0] 0 0
r 221.725161947 _4_ AGT  --- 335 ack 40 [14a 2 3 800] ------- [0:1 4194305:1 28 4194305] [110 0] 2 0
s 221.725161947 _4_ AGT  --- 349 tcp 1460 [0 0 0 0] ------- [4194305:1 0:1 32 0] [124 0] 0 0
s 221.725161947 _4_ AGT  --- 350 tcp 1460 [0 0 0 0] ------- [4194305:1 0:1 32 0] [125 0] 0 0
r 221.769494601 _4_ AGT  --- 336 ack 40 [14a 2 3 800] ------- [0:1 4194305:1 28 4194305] [111 0] 2 0
s 221.769494601 _4_ AGT  --- 352 tcp 1460 [0 0 0 0] ------- [4194305:1 0:1 32 0] [126 0] 0 0
r 221.784899440 _4_ AGT  --- 338 ack 40 [14a 2 3 800] ------- [0:1 4194305:1 28 4194305] [112 0] 2 0
s 221.784899440 _4_ AGT  --- 354 tcp 1460 [0 0 0 0] ------- [4194305:1 0:1 32 0] [127 0] 0 0
r 221.827470631 _4_ AGT  --- 340 ack 40 [14a 2 3 800] ------- [0:1 4194305:1 28 4194305] [113 0] 2 0
s 221.827470631 _4_ AGT  --- 355 tcp 1460 [0 0 0 0] ------- [4194305:1 0:1 32 0] [128 0] 0 0
r 221.844867992 _4_ AGT  --- 342 ack 40 [14a 2 3 800] ------- [0:1 4194305:1 28 4194305] [114 0] 2 0
s 221.844867992 _4_ AGT  --- 357 tcp 1460 [0 0 0 0] ------- [4194305:1 0:1 32 0] [129 0] 0 0
r 221.846791217 _4_ AGT  --- 343 ack 40 [14a 2 3 800] ------- [0:1 4194305:1 28 4194305] [115 0] 2 0
s 221.846791217 _4_ AGT  --- 358 tcp 1460 [0 0 0 0] ------- [4194305:1 0:1 32 0] [130 0] 0 0
r 221.891423872 _4_ AGT  --- 346 ack 40 [14a 2 3 800] ------- [0:1 4194305:1 28 4194305] [116 0] 2 0
s 221.891423872 _4_ AGT  --- 360 tcp 1460 [0 0 0 0] ------- [4194305:1 0:1 32 0] [131 0] 0 0
r 221.964515351 _4_ AGT  --- 348 ack 40 [14a 2 3 800] ------- [0:1 4194305:1 28 4194305] [117 0] 2 0
s 221.964515351 _4_ AGT  --- 367 tcp 1460 [0 0 0 0] ------- [4194305:1 0:1 32 0] [132 0] 0 0
r 221.984222411 _4_ AGT  --- 351 ack 40 [14a 2 3 800] ------- [0:1 4194305:1 28 4194305] [118 0] 2 0
s 221.984222411 _4_ AGT  --- 369 tcp 1460 [0 0 0 0] ------- [4194305:1 0:1 32 0] [133 0] 0 0
r 221.986345637 _4_ AGT  --- 353 ack 40 [14a 2 3 800] ------- [0:1 4194305:1 28 4194305] [119 0] 2 0
s 221.986345637 _4_ AGT  --- 370 tcp 1460 [0 0 0 0] ------- [4194305:1 0:1 32 0] [134 0] 0 0
r 222.034415702 _4_ AGT  --- 356 ack 40 [14a 2 3 800] ------- [0:1 4194305:1 28 4194305] [120 0] 2 0
s 222.034415702 _4_ AGT  --- 372 tcp 1460 [0 0 0 0] ------- [4194305:1 0:1 32 0] [135 0] 0 0
r 222.105804303 _4_ AGT  --- 359 ack 40 [14a 2 3 800] ------- [0:1 4194305:1 28 4194305] [121 0] 2 0
s 222.105804303 _4_ AGT  --- 374 tcp 1460 [0 0 0 0] ------- [4194305:1 0:1 32 0] [136 0] 0 0
r 222.171831431 _4_ AGT  --- 361 ack 40 [14a 2 3 800] ------- [0:1 4194305:1 28 4194305] [122 0] 2 0
s 222.171831431 _4_ AGT  --- 377 tcp 1460 [0 0 0 0] ------- [4194305:1 0:1 32 0] [137 0] 0 0
r 222.173974657 _4_ AGT  --- 362 ack 40 [14a 2 3 800] ------- [0:1 4194305:1 28 4194305] [123 0] 2 0
s 222.173974657 _4_ AGT  --- 378 tcp 1460 [0 0 0 0] ------- [4194305:1 0:1 32 0] [138 0] 0 0
r 222.204735244 _4_ AGT  --- 365 ack 40 [14a 2 3 800] ------- [0:1 4194305:1 28 4194305] [124 0] 2 0
s 222.204735244 _4_ AGT  --- 380 tcp 1460 [0 0 0 0] ------- [4194305:1 0:1 32 0] [139 0] 0 0
r 222.263271025 _4_ AGT  --- 366 ack 40 [14a 2 3 800] ------- [0:1 4194305:1 28 4194305] [125 0] 2 0
s 222.263271025 _4_ AGT  --- 383 tcp 1460 [0 0 0 0] ------- [4194305:1 0:1 32 0] [140 0] 0 0
s 222.263271025 _4_ AGT  --- 384 tcp 1460 [0 0 0 0] ------- [4194305:1 0:1 32 0] [141 0] 0 0
r 222.291958990 _4_ AGT  --- 368 ack 40 [14a 2 3 800] ------- [0:1 4194305:1 28 4194305] [126 0] 2 0
s 222.291958990 _4_ AGT  --- 386 tcp 1460 [0 0 0 0] ------- [4194305:1 0:1 32 0] [142 0] 0 0
r 222.309336351 _4_ AGT  --- 371 ack 40 [14a 2 3 800] ------- [0:1 4194305:1 28 4194305] [127 0] 2 0
s 222.309336351 _4_ AGT  --- 388 tcp 1460 [0 0 0 0] ------- [4194305:1 0:1 32 0] [143 0] 0 0
r 222.326973711 _4_ AGT  --- 373 ack 40 [14a 2 3 800] ------- [0:1 4194305:1 28 4194305] [128 0] 2 0
s 222.326973711 _4_ AGT  --- 389 tcp 1460 [0 0 0 0] ------- [4194305:1 0:1 32 0] [144 0] 0 0
r 222.342358550 _4_ AGT  --- 375 ack 40 [14a 2 3 800] ------- [0:1 4194305:1 28 4194305] [129 0] 2 0
s 222.342358550 _4_ AGT  --- 390 tcp 1460 [0 0 0 0] ------- [4194305:1 0:1 32 0] [145 0] 0 0
r 222.357704902 _4_ AGT  --- 376 ack 40 [14a 2 3 800] ------- [0:1 4194305:1 28 4194305] [130 0] 2 0
s 222.357704902 _4_ AGT  --- 391 tcp 1460 [0 0 0 0] ------- [4194305:1 0:1 32 0] [146 0] 0 0
r 222.431205976 _4_ AGT  --- 379 ack 40 [14a 2 3 800] ------- [0:1 4194305:1 28 4194305] [131 0] 2 0
s 222.431205976 _4_ AGT  --- 395 tcp 1460 [0 0 0 0] ------- [4194305:1 0:1 32 0] [147 0] 0 0
r 222.446792328 _4_ AGT  --- 381 ack 40 [14a 2 3 800] ------- [0:1 4194305:1 28 4194305] [132 0] 2 0
s 222.446792328 _4_ AGT  --- 396 tcp 1460 [0 0 0 0] ------- [4194305:1 0:1 32 0] [148 0] 0 0
r 222.495269672 _4_ AGT  --- 382 ack 40 [14a 2 3 800] ------- [0:1 4194305:1 28 4194305] [133 0] 2 0
s 222.495269672 _4_ AGT  --- 399 tcp 1460 [0 0 0 0] ------- [4194305:1 0:1 32 0] [149 0] 0 0
r 222.526339200 _4_ AGT  --- 385 ack 40 [14a 2 3 800] ------- [0:1 4194305:1 28 4194305] [134 0] 2 0
s 222.526339200 _4_ AGT  --- 401 tcp 1460 [0 0 0 0] ------- [4194305:1 0:1 32 0] [150 0] 0 0
r 222.557108729 _4_ AGT  --- 387 ack 40 [14a 2 3 800] ------- [0:1 4194305:1 28 4194305] [135 0] 2 0
s 222.557108729 _4_ AGT  --- 403 tcp 1460 [0 0 0 0] ------- [4194305:1 0:1 32 0] [151 0] 0 0
r 222.586656694 _4_ AGT  --- 392 ack 40 [14a 2 3 800] ------- [0:1 4194305:1 28 4194305] [136 0] 2 0
s 222.586656694 _4_ AGT  --- 405 tcp 1460 [0 0 0 0] ------- [4194305:1 0:1 32 0] [152 0] 0 0
r 222.660317619 _4_ AGT  --- 393 ack 40 [14a 2 3 800] ------- [0:1 4194305:1 28 4194305] [137 0] 2 0
s 222.660317619 _4_ AGT  --- 409 tcp 1460 [0 0 0 0] ------- [4194305:1 0:1 32 0] [153 0] 0 0
r 222.681641232 _4_ AGT  --- 394 ack 40 [14a 2 3 800] ------- [0:1 4194305:1 28 4194305] [138 0] 2 0
s 222.681641232 _4_ AGT  --- 411 tcp 1460 [0 0 0 0] ------- [4194305:1 0:1 32 0] [154 0] 0 0
r 222.697406071 _4_ AGT  --- 397 ack 40 [14a 2 3 800] ------- [0:1 4194305:1 28 4194305] [139 0] 2 0
s 222.697406071 _4_ AGT  --- 412 tcp 1460 [0 0 0 0] ------- [4194305:1 0:1 32 0] [155 0] 0 0
r 222.728606558 _4_ AGT  --- 398 ack 40 [14a 2 3 800] ------- [0:1 4194305:1 28 4194305] [140 0] 2 0
s 222.728606558 _4_ AGT  --- 413 tcp 1460 [0 0 0 0] ------- [4194305:1 0:1 32 0] [156 0] 0 0