M 0.0 nn:50 x:670 y:670 rp:dsr
M 0.0 sc:../mobility/scene/scen-670x670-50-600-20-0 cp:../mobility/scene/cbr-50-20-4-512 seed:0.0
M 0.0 prop:Propagation/TwoRayGround ant:Antenna/OmniAntenna
Sconfig 0.00000 tap: on snoop: rts? on errs? on
Sconfig 0.00000 salvage: on !bd replies? on
Sconfig 0.00000 grat error: on grat reply: on
Sconfig 0.00000 $reply for props: on ring 0 search: on
Sconfig 0.00000 using MOBICACHE
s 22.465028699 _18_ AGT  --- 0 cbr 512 [0 0 0 0] ------- [18:1 20:0 32 0] [0] 0 2
D 22.609922341 _42_ IFQ  ARP 10 DSR 60 [13a 2a 2a 800] ------- [20:255 18:255 252 18] 4 [0 2] [1 2 4 18->20] [0 0 0 0->0]
D 22.618526054 _42_ IFQ  ARP 8 DSR 60 [13a 2a 2a 800] ------- [20:255 18:255 252 18] 4 [0 2] [1 2 4 18->20] [0 0 0 0->0]
SSendFailure 22.620483564 _42_ 4 37 20:255 18:255 42->18 1 2 1 3 [20 |42 18 ]
Ssalv 22.62048 _42_ adding to SB --- 4 20 -> 18 [0]
SSendFailure 22.620483564 _42_ 12 37 20:255 18:255 42->18 1 2 1 4 [20 5 |42 18 ]
Ssalv 22.62048 _42_ adding to SB --- 12 20 -> 18 [0]
SFESTs 22.635519249 _18_ 0 [18 -> 20] 1(1) to 42 [18 |42 20 ]
D 22.639081824 _25_ IFQ  ARP 6 DSR 52 [13a 19 19 800] ------- [20:255 18:255 253 18] 3 [0 2] [1 2 3 18->20] [0 0 0 0->0]
D 22.643757014 _25_ IFQ  ARP 4 DSR 88 [13a 19 19 800] ------- [20:255 18:255 251 18] 4 [0 2] [1 2 3 18->20] [0 0 0 0->0]
r 22.671481904 _20_ AGT  --- 0 cbr 512 [13a 14 2a 800] ------- [18:1 20:0 31 20] [0] 2 2
s 23.789830405 _16_ AGT  --- 17 cbr 512 [0 0 0 0] ------- [16:0 17:0 32 0] [0] 0 1
SFESTs 23.800033125 _16_ 17 [16 -> 17] 1(1) to 17 [16 |17 ]
r 23.805914877 _17_ AGT  --- 17 cbr 512 [13a 11 10 800] ------- [16:0 17:0 32 17] [0] 1 1
s 25.415462184 _18_ AGT  --- 20 cbr 512 [0 0 0 0] ------- [18:1 20:0 32 0] [1] 0 2
SFESTs 25.415462184 _18_ 20 [18 -> 20] 1(1) to 42 [18 |42 20 ]
r 25.427805712 _20_ AGT  --- 20 cbr 512 [13a 14 2a 800] ------- [18:1 20:0 31 20] [1] 2 2
s 27.918234464 _16_ AGT  --- 21 cbr 512 [0 0 0 0] ------- [16:0 17:0 32 0] [1] 0 1
SFESTs 27.918234464 _16_ 21 [16 -> 17] 1(1) to 17 [16 |17 ]
r 27.923932215 _17_ AGT  --- 21 cbr 512 [13a 11 10 800] ------- [16:0 17:0 32 17] [1] 1 1
s 29.031284241 _9_ AGT  --- 22 cbr 512 [0 0 0 0] ------- [9:2 11:0 32 0] [0] 0 2
SFESTs 29.139066920 _9_ 22 [9 -> 11] 1(1) to 34 [9 |34 36 11 ]
r 29.163832835 _11_ AGT  --- 22 cbr 512 [13a b 24 800] ------- [9:2 11:0 30 11] [0] 3 2
s 30.208176370 _13_ AGT  --- 33 cbr 512 [0 0 0 0] ------- [13:2 14:1 32 0] [0] 0 3
D 30.292831035 _34_ IFQ  ARP 37 DSR 60 [13a 22 22 800] ------- [14:255 13:255 253 46] 4 [0 2] [1 2 4 13->14] [0 0 0 0->0]
D 30.304597171 _34_ IFQ  ARP 38 DSR 64 [13a 22 22 800] ------- [11:255 13:255 254 46] 4 [0 2] [1 2 5 13->14] [0 0 0 0->0]
D 30.368730014 _46_ IFQ  ARP 40 DSR 68 [13a 2e 2e 800] ------- [14:255 13:255 251 13] 5 [0 2] [1 2 5 13->14] [0 0 0 0->0]
SFESTs 30.372845595 _13_ 33 [13 -> 14] 1(1) to 27 [13 |27 6 36 14 ]
D 30.376626594 _46_ IFQ  ARP 42 DSR 68 [13a 2e 2e 800] ------- [14:255 13:255 251 13] 5 [0 2] [1 2 5 13->14] [0 0 0 0->0]
SSendFailure 30.380325732 _46_ 45 37 14:255 13:255 46->13 1 3 1 4 [14 22 |46 13 ]
D 30.380325732 _46_ RTR  CBK 45 DSR 60 [13a 2e 2e 800] ------- [14:255 13:255 252 13] 4 [0 2] [0 2 4 13->14] [0 0 0 0->0]
SSendFailure 30.380325732 _46_ 41 37 14:255 13:255 46->13 1 3 1 4 [14 47 |46 13 ]
D 30.380325732 _46_ RTR  CBK 41 DSR 60 [13a 2e 2e 800] ------- [14:255 13:255 252 13] 4 [0 2] [0 2 4 13->14] [0 0 0 0->0]
r 30.438056891 _14_ AGT  --- 33 cbr 512 [13a e 24 800] ------- [13:2 14:1 29 14] [0] 4 3
s 30.669012250 _18_ AGT  --- 52 cbr 512 [0 0 0 0] ------- [18:1 20:0 32 0] [2] 0 2
SFESTs 30.669012250 _18_ 52 [18 -> 20] 1(1) to 42 [18 |42 20 ]
r 30.681015778 _20_ AGT  --- 52 cbr 512 [13a 14 2a 800] ------- [18:1 20:0 31 20] [2] 2 2
s 32.339758870 _9_ AGT  --- 53 cbr 512 [0 0 0 0] ------- [9:2 11:0 32 0] [1] 0 2
SFESTs 32.339758870 _9_ 53 [9 -> 11] 3(1) to 34 [9 |34 11 ]
r 32.351802787 _11_ AGT  --- 53 cbr 512 [13a b 22 800] ------- [9:2 11:0 31 11] [1] 2 2
s 33.163701214 _16_ AGT  --- 54 cbr 512 [0 0 0 0] ------- [16:0 17:0 32 0] [2] 0 1
SFESTs 33.163701214 _16_ 54 [16 -> 17] 1(1) to 17 [16 |17 ]
r 33.169858965 _17_ AGT  --- 54 cbr 512 [13a 11 10 800] ------- [16:0 17:0 32 17] [2] 1 1
s 33.808560826 _13_ AGT  --- 55 cbr 512 [0 0 0 0] ------- [13:2 14:1 32 0] [1] 0 3
SFESTs 33.808560826 _13_ 55 [13 -> 14] 3(1) to 46 [13 |46 16 14 ]
r 33.826593829 _14_ AGT  --- 55 cbr 512 [13a e 10 800] ------- [13:2 14:1 30 14] [1] 3 3
s 35.818267490 _18_ AGT  --- 56 cbr 512 [0 0 0 0] ------- [18:1 20:0 32 0] [3] 0 2
SFESTs 35.818267490 _18_ 56 [18 -> 20] 1(1) to 42 [18 |42 20 ]
r 35.830351018 _20_ AGT  --- 56 cbr 512 [13a 14 2a 800] ------- [18:1 20:0 31 20] [3] 2 2
s 37.953153224 _8_ AGT  --- 57 cbr 512 [0 0 0 0] ------- [8:1 10:0 32 0] [0] 0 2
D 38.055399714 _46_ IFQ  ARP 64 DSR 60 [13a 2e 2e 800] ------- [10:255 8:255 252 8] 4 [0 2] [1 2 4 8->10] [0 0 0 0->0]
SFESTs 38.084241110 _8_ 57 [8 -> 10] 1(1) to 46 [8 |46 34 14 10 ]
r 38.222276465 _10_ AGT  --- 57 cbr 512 [13a a e 800] ------- [8:1 10:0 29 10] [0] 4 2
s 38.238743656 _9_ AGT  --- 76 cbr 512 [0 0 0 0] ------- [9:2 11:0 32 0] [2] 0 2
SFESTs 38.238743656 _9_ 76 [9 -> 11] 3(1) to 34 [9 |34 11 ]
r 38.250907573 _11_ AGT  --- 76 cbr 512 [13a b 22 800] ------- [9:2 11:0 31 11] [2] 2 2
s 38.634189728 _16_ AGT  --- 77 cbr 512 [0 0 0 0] ------- [16:0 17:0 32 0] [3] 0 1
SFESTs 38.634189728 _16_ 77 [16 -> 17] 1(1) to 17 [16 |17 ]
r 38.639947479 _17_ AGT  --- 77 cbr 512 [13a 11 10 800] ------- [16:0 17:0 32 17] [3] 1 1
s 38.967903308 _13_ AGT  --- 78 cbr 512 [0 0 0 0] ------- [13:2 14:1 32 0] [2] 0 3
SFESTs 38.967903308 _13_ 78 [13 -> 14] 3(1) to 46 [13 |46 16 14 ]
r 38.986196311 _14_ AGT  --- 78 cbr 512 [13a e 10 800] ------- [13:2 14:1 30 14] [2] 3 3
s 40.829912720 _18_ AGT  --- 79 cbr 512 [0 0 0 0] ------- [18:1 20:0 32 0] [4] 0 2
SFESTs 40.829912720 _18_ 79 [18 -> 20] 1(1) to 42 [18 |42 20 ]
r 40.841636248 _20_ AGT  --- 79 cbr 512 [13a 14 2a 800] ------- [18:1 20:0 31 20] [4] 2 2
s 40.917940000 _12_ AGT  --- 80 cbr 512 [0 0 0 0] ------- [12:2 14:0 32 0] [0] 0 2
SFESTs 40.917940000 _12_ 80 [12 -> 14] 1(1) to 46 [12 |46 22 14 ]
r 40.936133472 _14_ AGT  --- 80 cbr 512 [13a e 16 800] ------- [12:2 14:0 30 14] [0] 3 2
s 41.904960965 _16_ AGT  --- 81 cbr 512 [0 0 0 0] ------- [16:0 17:0 32 0] [4] 0 1
SFs 41.904960965 _16_ 81 [16 -> 17] 1(0) to 17 
r 41.910710716 _17_ AGT  --- 81 cbr 512 [13a 11 10 800] ------- [16:0 17:0 32 17] [4] 1 1
s 42.693983995 _8_ AGT  --- 82 cbr 512 [0 0 0 0] ------- [8:1 10:0 32 0] [1] 0 2
SFESTs 42.693983995 _8_ 82 [8 -> 10] 3(1) to 18 [8 |18 27 10 ]
r 42.712356974 _10_ AGT  --- 82 cbr 512 [13a a 1b 800] ------- [8:1 10:0 30 10] [1] 3 2
s 43.633588663 _13_ AGT  --- 83 cbr 512 [0 0 0 0] ------- [13:2 14:1 32 0] [3] 0 3
SFESTs 43.633588663 _13_ 83 [13 -> 14] 3(1) to 46 [13 |46 16 14 ]
r 43.652201665 _14_ AGT  --- 83 cbr 512 [13a e 10 800] ------- [13:2 14:1 30 14] [3] 3 3
s 43.826534903 _9_ AGT  --- 84 cbr 512 [0 0 0 0] ------- [9:2 11:0 32 0] [3] 0 2
SFESTs 43.826534903 _9_ 84 [9 -> 11] 3(1) to 34 [9 |34 11 ]
r 43.838298821 _11_ AGT  --- 84 cbr 512 [13a b 22 800] ------- [9:2 11:0 31 11] [3] 2 2
s 44.809541400 _12_ AGT  --- 85 cbr 512 [0 0 0 0] ------- [12:2 14:0 32 0] [1] 0 2
SFESTs 44.809541400 _12_ 85 [12 -> 14] 1(1) to 46 [12 |46 22 14 ]
r 44.828034872 _14_ AGT  --- 85 cbr 512 [13a e 16 800] ------- [12:2 14:0 30 14] [1] 3 2
s 45.319219518 _18_ AGT  --- 86 cbr 512 [0 0 0 0] ------- [18:1 20:0 32 0] [5] 0 2
SFs 45.319219518 _18_ 86 [18 -> 20] 1(0) to 42 
SFf 45.324929959 _42_ 86 [18 -> 20] 1 to 20
r 45.330843046 _20_ AGT  --- 86 cbr 512 [13a 14 2a 800] ------- [18:1 20:0 31 20] [5] 2 2
s 45.431662856 _16_ AGT  --- 87 cbr 512 [0 0 0 0] ------- [16:0 17:0 32 0] [5] 0 1
SFESTs 45.431662856 _16_ 87 [16 -> 17] 1(1) to 17 [16 |17 ]
r 45.437640607 _17_ AGT  --- 87 cbr 512 [13a 11 10 800] ------- [16:0 17:0 32 17] [5] 1 1
s 47.484855778 _9_ AGT  --- 88 cbr 512 [0 0 0 0] ------- [9:2 11:0 32 0] [4] 0 2
SFs 47.484855778 _9_ 88 [9 -> 11] 3(0) to 34 
SFf 47.490805471 _34_ 88 [9 -> 11] 3 to 11
r 47.496919695 _11_ AGT  --- 88 cbr 512 [13a b 22 800] ------- [9:2 11:0 31 11] [4] 2 2
s 47.509281967 _16_ AGT  --- 89 cbr 512 [0 0 0 0] ------- [16:0 17:0 32 0] [6] 0 1
SFs 47.509281967 _16_ 89 [16 -> 17] 1(0) to 17 
r 47.515111718 _17_ AGT  --- 89 cbr 512 [13a 11 10 800] ------- [16:0 17:0 32 17] [6] 1 1
s 47.532451984 _13_ AGT  --- 90 cbr 512 [0 0 0 0] ------- [13:2 14:1 32 0] [4] 0 3
SFs 47.532451984 _13_ 90 [13 -> 14] 3(0) to 46 
SFf 47.538002024 _46_ 90 [13 -> 14] 3 to 16
SFf 47.543976178 _16_ 90 [13 -> 14] 3 to 14
r 47.549848986 _14_ AGT  --- 90 cbr 512 [13a e 10 800] ------- [13:2 14:1 30 14] [4] 3 3
s 47.700510180 _8_ AGT  --- 91 cbr 512 [0 0 0 0] ------- [8:1 10:0 32 0] [2] 0 2
SFESTs 47.700510180 _8_ 91 [8 -> 10] 3(1) to 18 [8 |18 27 10 ]
r 47.718403159 _10_ AGT  --- 91 cbr 512 [13a a 1b 800] ------- [8:1 10:0 30 10] [2] 3 2
s 49.219904039 _12_ AGT  --- 92 cbr 512 [0 0 0 0] ------- [12:2 14:0 32 0] [2] 0 2
SFESTs 49.219904039 _12_ 92 [12 -> 14] 1(1) to 46 [12 |46 22 14 ]
r 49.237817511 _14_ AGT  --- 92 cbr 512 [13a e 16 800] ------- [12:2 14:0 30 14] [2] 3 2
s 49.301524804 _18_ AGT  --- 93 cbr 512 [0 0 0 0] ------- [18:1 20:0 32 0] [6] 0 2
SFESTs 49.301524804 _18_ 93 [18 -> 20] 1(1) to 42 [18 |42 20 ]
r 49.314048332 _20_ AGT  --- 93 cbr 512 [13a 14 2a 800] ------- [18:1 20:0 31 20] [6] 2 2
s 50.077838763 _16_ AGT  --- 94 cbr 512 [0 0 0 0] ------- [16:0 17:0 32 0] [7] 0 1
SFs 50.077838763 _16_ 94 [16 -> 17] 1(0) to 17 
r 50.083848514 _17_ AGT  --- 94 cbr 512 [13a 11 10 800] ------- [16:0 17:0 32 17] [7] 1 1
s 50.613789392 _8_ AGT  --- 95 cbr 512 [0 0 0 0] ------- [8:1 10:0 32 0] [3] 0 2
SFESTs 50.613789392 _8_ 95 [8 -> 10] 3(1) to 18 [8 |18 27 10 ]
r 50.632282371 _10_ AGT  --- 95 cbr 512 [13a a 1b 800] ------- [8:1 10:0 30 10] [3] 3 2
s 50.823808114 _13_ AGT  --- 96 cbr 512 [0 0 0 0] ------- [13:2 14:1 32 0] [5] 0 3
SFESTs 50.823808114 _13_ 96 [13 -> 14] 3(1) to 46 [13 |46 16 14 ]
r 50.841561117 _14_ AGT  --- 96 cbr 512 [13a e 10 800] ------- [13:2 14:1 30 14] [5] 3 3
s 52.117237422 _12_ AGT  --- 97 cbr 512 [0 0 0 0] ------- [12:2 14:0 32 0] [3] 0 2
SFs 52.117237422 _12_ 97 [12 -> 14] 1(0) to 46 
SFf 52.122827853 _46_ 97 [12 -> 14] 1 to 22
SFf 52.128581795 _22_ 97 [12 -> 14] 1 to 14
r 52.134794894 _14_ AGT  --- 97 cbr 512 [13a e 16 800] ------- [12:2 14:0 30 14] [3] 3 2
s 52.784920486 _18_ AGT  --- 98 cbr 512 [0 0 0 0] ------- [18:1 20:0 32 0] [7] 0 2
SFs 52.784920486 _18_ 98 [18 -> 20] 1(0) to 42 
SFf 52.790910926 _42_ 98 [18 -> 20] 1 to 20
r 52.796644014 _20_ AGT  --- 98 cbr 512 [13a 14 2a 800] ------- [18:1 20:0 31 20] [7] 2 2
s 52.891162498 _9_ AGT  --- 99 cbr 512 [0 0 0 0] ------- [9:2 11:0 32 0] [5] 0 2
SFESTs 52.891162498 _9_ 99 [9 -> 11] 3(1) to 34 [9 |34 11 ]
r 52.903126416 _11_ AGT  --- 99 cbr 512 [13a b 22 800] ------- [9:2 11:0 31 11] [5] 2 2
s 52.979070710 _16_ AGT  --- 100 cbr 512 [0 0 0 0] ------- [16:0 17:0 32 0] [8] 0 1
SFESTs 52.979070710 _16_ 100 [16 -> 17] 1(1) to 17 [16 |17 ]
r 52.984828461 _17_ AGT  --- 100 cbr 512 [13a 11 10 800] ------- [16:0 17:0 32 17] [8] 1 1
s 53.302465006 _13_ AGT  --- 101 cbr 512 [0 0 0 0] ------- [13:2 14:1 32 0] [6] 0 3
SFs 53.302465006 _13_ 101 [13 -> 14] 3(0) to 46 
SFf 53.308335047 _46_ 101 [13 -> 14] 3 to 16
SFf 53.314549200 _16_ 101 [13 -> 14] 3 to 14
r 53.320722009 _14_ AGT  --- 101 cbr 512 [13a e 10 800] ------- [13:2 14:1 30 14] [6] 3 3
s 55.778846828 _16_ AGT  --- 102 cbr 512 [0 0 0 0] ------- [16:0 17:0 32 0] [9] 0 1
SFs 55.778846828 _16_ 102 [16 -> 17] 1(0) to 17 
r 55.784416579 _17_ AGT  --- 102 cbr 512 [13a 11 10 800] ------- [16:0 17:0 32 17] [9] 1 1
s 56.272353212 _18_ AGT  --- 103 cbr 512 [0 0 0 0] ------- [18:1 20:0 32 0] [8] 0 2
SFESTs 56.272353212 _18_ 103 [18 -> 20] 1(1) to 42 [18 |42 20 ]
r 56.284036740 _20_ AGT  --- 103 cbr 512 [13a 14 2a 800] ------- [18:1 20:0 31 20] [8] 2 2
s 56.294644301 _8_ AGT  --- 104 cbr 512 [0 0 0 0] ------- [8:1 10:0 32 0] [4] 0 2
SFESTs 56.294644301 _8_ 104 [8 -> 10] 3(1) to 18 [8 |18 27 10 ]
r 56.313277279 _10_ AGT  --- 104 cbr 512 [13a a 1b 800] ------- [8:1 10:0 30 10] [4] 3 2
s 56.776331956 _12_ AGT  --- 105 cbr 512 [0 0 0 0] ------- [12:2 14:0 32 0] [4] 0 2
SFESTs 56.776331956 _12_ 105 [12 -> 14] 1(1) to 46 [12 |46 22 14 ]
r 56.794565428 _14_ AGT  --- 105 cbr 512 [13a e 16 800] ------- [12:2 14:0 30 14] [4] 3 2
s 57.619503811 _9_ AGT  --- 106 cbr 512 [0 0 0 0] ------- [9:2 11:0 32 0] [6] 0 2
SFs 57.619503811 _9_ 106 [9 -> 11] 3(0) to 34 
SFf 57.624973504 _34_ 106 [9 -> 11] 3 to 11
r 57.631167729 _11_ AGT  --- 106 cbr 512 [13a b 22 800] ------- [9:2 11:0 31 11] [6] 2 2
s 58.279744340 _13_ AGT  --- 107 cbr 512 [0 0 0 0] ------- [13:2 14:1 32 0] [7] 0 3
SFESTs 58.279744340 _13_ 107 [13 -> 14] 3(1) to 46 [13 |46 16 14 ]
r 58.298237343 _14_ AGT  --- 107 cbr 512 [13a e 10 800] ------- [13:2 14:1 30 14] [7] 3 3
s 59.099938705 _8_ AGT  --- 108 cbr 512 [0 0 0 0] ------- [8:1 10:0 32 0] [5] 0 2
SFs 59.099938705 _8_ 108 [8 -> 10] 3(0) to 18 
SFf 59.105628370 _18_ 108 [8 -> 10] 3 to 27
SFf 59.111681309 _27_ 108 [8 -> 10] 3 to 10
r 59.117595684 _10_ AGT  --- 108 cbr 512 [13a a 1b 800] ------- [8:1 10:0 30 10] [5] 3 2
s 60.208339422 _9_ AGT  --- 109 cbr 512 [0 0 0 0] ------- [9:2 11:0 32 0] [7] 0 2
SFESTs 60.208339422 _9_ 109 [9 -> 11] 3(1) to 34 [9 |34 11 ]
s 60.211611431 _12_ AGT  --- 110 cbr 512 [0 0 0 0] ------- [12:2 14:0 32 0] [5] 0 2
SFs 60.211611431 _12_ 110 [12 -> 14] 1(0) to 46 
r 60.220523339 _11_ AGT  --- 109 cbr 512 [13a b 22 800] ------- [9:2 11:0 31 11] [7] 2 2
SFf 60.226903262 _46_ 110 [12 -> 14] 1 to 22
SFf 60.232877204 _22_ 110 [12 -> 14] 1 to 14
r 60.239010303 _14_ AGT  --- 110 cbr 512 [13a e 16 800] ------- [12:2 14:0 30 14] [5] 3 2
s 61.028017094 _18_ AGT  --- 111 cbr 512 [0 0 0 0] ------- [18:1 20:0 32 0] [9] 0 2
SFs 61.028017094 _18_ 111 [18 -> 20] 1(0) to 42 
SFf 61.033487534 _42_ 111 [18 -> 20] 1 to 20
r 61.039400622 _20_ AGT  --- 111 cbr 512 [13a 14 2a 800] ------- [18:1 20:0 31 20] [9] 2 2
s 61.225322018 _8_ AGT  --- 112 cbr 512 [0 0 0 0] ------- [8:1 10:0 32 0] [6] 0 2
SFs 61.225322018 _8_ 112 [8 -> 10] 3(0) to 18 
SFf 61.231011682 _18_ 112 [8 -> 10] 3 to 27
SFf 61.237304622 _27_ 112 [8 -> 10] 3 to 10
r 61.243358996 _10_ AGT  --- 112 cbr 512 [13a a 1b 800] ------- [8:1 10:0 30 10] [6] 3 2
s 61.655988610 _16_ AGT  --- 113 cbr 512 [0 0 0 0] ------- [16:0 17:0 32 0] [10] 0 1
SFESTs 61.655988610 _16_ 113 [16 -> 17] 1(1) to 17 [16 |17 ]
r 61.662166361 _17_ AGT  --- 113 cbr 512 [13a 11 10 800] ------- [16:0 17:0 32 17] [10] 1 1
s 62.311099699 _12_ AGT  --- 114 cbr 512 [0 0 0 0] ------- [12:2 14:0 32 0] [6] 0 2
SFESTs 62.311099699 _12_ 114 [12 -> 14] 1(1) to 46 [12 |46 22 14 ]
r 62.329273171 _14_ AGT  --- 114 cbr 512 [13a e 16 800] ------- [12:2 14:0 30 14] [6] 3 2
s 62.690671268 _13_ AGT  --- 115 cbr 512 [0 0 0 0] ------- [13:2 14:1 32 0] [8] 0 3
SFs 62.690671268 _13_ 115 [13 -> 14] 3(0) to 46 
SFf 62.696721309 _46_ 115 [13 -> 14] 3 to 16
SFf 62.702955462 _16_ 115 [13 -> 14] 3 to 14
r 62.708828271 _14_ AGT  --- 115 cbr 512 [13a e 10 800] ------- [13:2 14:1 30 14] [8] 3 3
s 63.515881972 _18_ AGT  --- 116 cbr 512 [0 0 0 0] ------- [18:1 20:0 32 0] [10] 0 2
SFESTs 63.515881972 _18_ 116 [18 -> 20] 1(1) to 42 [18 |42 20 ]
r 63.527765500 _20_ AGT  --- 116 cbr 512 [13a 14 2a 800] ------- [18:1 20:0 31 20] [10] 2 2
s 63.972638169 _16_ AGT  --- 117 cbr 512 [0 0 0 0] ------- [16:0 17:0 32 0] [11] 0 1
SFs 63.972638169 _16_ 117 [16 -> 17] 1(0) to 17 
r 63.978587920 _17_ AGT  --- 117 cbr 512 [13a 11 10 800] ------- [16:0 17:0 32 17] [11] 1 1
s 64.190815183 _9_ AGT  --- 118 cbr 512 [0 0 0 0] ------- [9:2 11:0 32 0] [8] 0 2
SFs 64.190815183 _9_ 118 [9 -> 11] 3(0) to 34 
SFf 64.196824876 _34_ 118 [9 -> 11] 3 to 11
r 64.202999101 _11_ AGT  --- 118 cbr 512 [13a b 22 800] ------- [9:2 11:0 31 11] [8] 2 2
s 64.742369115 _13_ AGT  --- 119 cbr 512 [0 0 0 0] ------- [13:2 14:1 32 0] [9] 0 3
SFESTs 64.742369115 _13_ 119 [13 -> 14] 3(1) to 46 [13 |46 16 14 ]
r 64.760502118 _14_ AGT  --- 119 cbr 512 [13a e 10 800] ------- [13:2 14:1 30 14] [9] 3 3
s 66.398810730 _8_ AGT  --- 120 cbr 512 [0 0 0 0] ------- [8:1 10:0 32 0] [7] 0 2
SFESTs 66.398810730 _8_ 120 [8 -> 10] 3(1) to 18 [8 |18 27 10 ]
r 66.417103708 _10_ AGT  --- 120 cbr 512 [13a a 1b 800] ------- [8:1 10:0 30 10] [7] 3 2
s 66.805118942 _12_ AGT  --- 121 cbr 512 [0 0 0 0] ------- [12:2 14:0 32 0] [7] 0 2
SFs 66.805118942 _12_ 121 [12 -> 14] 1(0) to 46 
SFf 66.811149373 _46_ 121 [12 -> 14] 1 to 22
SFf 66.817063315 _22_ 121 [12 -> 14] 1 to 14
r 66.822976414 _14_ AGT  --- 121 cbr 512 [13a e 16 800] ------- [12:2 14:0 30 14] [7] 3 2
s 67.994597753 _13_ AGT  --- 122 cbr 512 [0 0 0 0] ------- [13:2 14:1 32 0] [10] 0 3
SFs 67.994597753 _13_ 122 [13 -> 14] 3(0) to 46 
SFf 68.000367793 _46_ 122 [13 -> 14] 3 to 16
SFf 68.006601947 _16_ 122 [13 -> 14] 3 to 14
r 68.012334755 _14_ AGT  --- 122 cbr 512 [13a e 10 800] ------- [13:2 14:1 30 14] [10] 3 3
s 68.084386934 _16_ AGT  --- 123 cbr 512 [0 0 0 0] ------- [16:0 17:0 32 0] [12] 0 1
SFESTs 68.084386934 _16_ 123 [16 -> 17] 1(1) to 17 [16 |17 ]
r 68.090384685 _17_ AGT  --- 123 cbr 512 [13a 11 10 800] ------- [16:0 17:0 32 17] [12] 1 1
s 68.891273619 _18_ AGT  --- 124 cbr 512 [0 0 0 0] ------- [18:1 20:0 32 0] [11] 0 2
SFESTs 68.891273619 _18_ 124 [18 -> 20] 1(1) to 42 [18 |42 20 ]
r 68.903217147 _20_ AGT  --- 124 cbr 512 [13a 14 2a 800] ------- [18:1 20:0 31 20] [11] 2 2
s 69.593078109 _9_ AGT  --- 125 cbr 512 [0 0 0 0] ------- [9:2 11:0 32 0] [9] 0 2
SFESTs 69.593078109 _9_ 125 [9 -> 11] 3(1) to 34 [9 |34 11 ]
r 69.605142027 _11_ AGT  --- 125 cbr 512 [13a b 22 800] ------- [9:2 11:0 31 11] [9] 2 2
s 69.608406842 _8_ AGT  --- 126 cbr 512 [0 0 0 0] ------- [8:1 10:0 32 0] [8] 0 2
SFs 69.608406842 _8_ 126 [8 -> 10] 3(0) to 18 
SFf 69.613976506 _18_ 126 [8 -> 10] 3 to 27
SFf 69.619889446 _27_ 126 [8 -> 10] 3 to 10
r 69.625803821 _10_ AGT  --- 126 cbr 512 [13a a 1b 800] ------- [8:1 10:0 30 10] [8] 3 2
s 70.630399594 _12_ AGT  --- 127 cbr 512 [0 0 0 0] ------- [12:2 14:0 32 0] [8] 0 2
SFESTs 70.630399594 _12_ 127 [12 -> 14] 1(1) to 46 [12 |46 22 14 ]
r 70.649013066 _14_ AGT  --- 127 cbr 512 [13a e 16 800] ------- [12:2 14:0 30 14] [8] 3 2
s 71.132285784 _18_ AGT  --- 128 cbr 512 [0 0 0 0] ------- [18:1 20:0 32 0] [12] 0 2
SFs 71.132285784 _18_ 128 [18 -> 20] 1(0) to 42 
SFf 71.138256224 _42_ 128 [18 -> 20] 1 to 20
r 71.144409312 _20_ AGT  --- 128 cbr 512 [13a 14 2a 800] ------- [18:1 20:0 31 20] [12] 2 2
s 71.357608579 _13_ AGT  --- 129 cbr 512 [0 0 0 0] ------- [13:2 14:1 32 0] [11] 0 3
SFESTs 71.357608579 _13_ 129 [13 -> 14] 3(1) to 46 [13 |46 16 14 ]
r 71.376561582 _14_ AGT  --- 129 cbr 512 [13a e 10 800] ------- [13:2 14:1 30 14] [11] 3 3
s 72.337692033 _16_ AGT  --- 130 cbr 512 [0 0 0 0] ------- [16:0 17:0 32 0] [13] 0 1
SFs 72.337692033 _16_ 130 [16 -> 17] 1(0) to 17 
r 72.343721784 _17_ AGT  --- 130 cbr 512 [13a 11 10 800] ------- [16:0 17:0 32 17] [13] 1 1
s 73.146233981 _9_ AGT  --- 131 cbr 512 [0 0 0 0] ------- [9:2 11:0 32 0] [10] 0 2
SFs 73.146233981 _9_ 131 [9 -> 11] 3(0) to 34 
SFf 73.152243674 _34_ 131 [9 -> 11] 3 to 11
r 73.158217898 _11_ AGT  --- 131 cbr 512 [13a b 22 800] ------- [9:2 11:0 31 11] [10] 2 2
s 74.030303682 _12_ AGT  --- 132 cbr 512 [0 0 0 0] ------- [12:2 14:0 32 0] [9] 0 2
SFs 74.030303682 _12_ 132 [12 -> 14] 1(0) to 46 
SFf 74.035814113 _46_ 132 [12 -> 14] 1 to 22
SFf 74.041768055 _22_ 132 [12 -> 14] 1 to 14
r 74.047781154 _14_ AGT  --- 132 cbr 512 [13a e 16 800] ------- [12:2 14:0 30 14] [9] 3 2
s 74.673568398 _8_ AGT  --- 133 cbr 512 [0 0 0 0] ------- [8:1 10:0 32 0] [9] 0 2
SFESTs 74.673568398 _8_ 133 [8 -> 10] 3(1) to 18 [8 |18 27 10 ]
r 74.691461377 _10_ AGT  --- 133 cbr 512 [13a a 1b 800] ------- [8:1 10:0 30 10] [9] 3 2
s 75.477956243 _19_ AGT  --- 134 cbr 512 [0 0 0 0] ------- [19:1 20:1 32 0] [0] 0 3
D 75.583616993 _1_ IFQ  ARP 140 DSR 64 [13a 1 1 800] ------- [29:255 19:255 254 19] 3 [0 2] [1 2 6 19->20] [0 0 0 0->0]
D 75.585820779 _1_ IFQ  ARP 138 DSR 56 [13a 1 1 800] ------- [32:255 19:255 254 19] 3 [0 2] [1 2 4 19->20] [0 0 0 0->0]
SSendFailure 75.587767634 _1_ 145 37 27:255 19:255 1->19 1 3 1 4 [27 43 |1 19 ]
Ssalv 75.58777 _1_ adding to SB --- 145 27 -> 19 [0]
SSendFailure 75.587767634 _1_ 139 37 21:255 19:255 1->19 1 2 1 3 [21 |1 19 ]
Ssalv 75.58777 _1_ adding to SB --- 139 21 -> 19 [0]
D 75.609258020 _1_ IFQ  ARP 142 DSR 72 [13a 1 1 800] ------- [47:255 19:255 253 19] 4 [0 2] [1 2 7 19->20] [0 0 0 0->0]
D 75.609258020 _1_ IFQ  ARP 145 DSR 116 [13a 1 1 800] ------- [27:255 19:255 253 19] 2 [0 2] [1 2 7 19->20] [0 0 0 0->0]
SSendFailure 75.609359226 _1_ 139 37 21:255 19:255 1->19 1 2 1 2 [|1 19 ]
Ssalv 75.60936 _1_ adding to SB --- 139 21 -> 19 [0]
SSendFailure 75.609359226 _1_ 144 37 46:255 19:255 1->19 1 2 1 4 [46 43 |1 19 ]
Ssalv 75.60936 _1_ adding to SB --- 144 46 -> 19 [0]
D 75.620602386 _1_ IFQ  ARP 143 DSR 68 [13a 1 1 800] ------- [39:255 19:255 253 19] 4 [0 2] [1 2 6 19->20] [0 0 0 0->0]
D 75.631992177 _1_ IFQ  ARP 141 DSR 72 [13a 1 1 800] ------- [0:255 19:255 253 19] 4 [0 2] [1 2 7 19->20] [0 0 0 0->0]
SSendFailure 75.639762645 _1_ 147 37 37:255 19:255 1->19 1 3 1 5 [37 34 43 |1 19 ]
Ssalv 75.63976 _1_ adding to SB --- 147 37 -> 19 [0]
SSendFailure 75.639762645 _1_ 149 37 23:255 19:255 1->19 1 3 1 5 [23 34 43 |1 19 ]
Ssalv 75.63976 _1_ adding to SB --- 149 23 -> 19 [0]
D 75.662967799 _1_ IFQ  ARP 150 DSR 80 [13a 1 1 800] ------- [4:255 19:255 252 19] 5 [0 2] [1 2 8 19->20] [0 0 0 0->0]
D 75.682083578 _1_ IFQ  ARP 146 DSR 72 [13a 1 1 800] ------- [7:255 19:255 253 19] 4 [0 2] [1 2 7 19->20] [0 0 0 0->0]
SFESTs 75.708685705 _19_ 134 [19 -> 20] 1(1) to 1 [19 |1 43 34 6 18 42 20 ]
r 75.778111002 _20_ AGT  --- 134 cbr 512 [13a 14 2a 800] ------- [19:1 20:1 26 20] [0] 7 3
s 76.740217951 _18_ AGT  --- 164 cbr 512 [0 0 0 0] ------- [18:1 20:0 32 0] [13] 0 2
SFESTs 76.740217951 _18_ 164 [18 -> 20] 1(1) to 42 [18 |42 20 ]
r 76.752341479 _20_ AGT  --- 164 cbr 512 [13a 14 2a 800] ------- [18:1 20:0 31 20] [13] 2 2
s 76.817081532 _13_ AGT  --- 165 cbr 512 [0 0 0 0] ------- [13:2 14:1 32 0] [12] 0 3
SFESTs 76.817081532 _13_ 165 [13 -> 14] 3(1) to 46 [13 |46 16 14 ]
r 76.835134535 _14_ AGT  --- 165 cbr 512 [13a e 10 800] ------- [13:2 14:1 30 14] [12] 3 3
s 78.126005235 _16_ AGT  --- 166 cbr 512 [0 0 0 0] ------- [16:0 17:0 32 0] [14] 0 1
SFESTs 78.126005235 _16_ 166 [16 -> 17] 1(1) to 17 [16 |17 ]
r 78.132182987 _17_ AGT  --- 166 cbr 512 [13a 11 10 800] ------- [16:0 17:0 32 17] [14] 1 1
s 78.340824457 _19_ AGT  --- 167 cbr 512 [0 0 0 0] ------- [19:1 20:1 32 0] [1] 0 3
SFESTs 78.340824457 _19_ 167 [19 -> 20] 3(1) to 1 [19 |1 21 20 ]
r 78.358938618 _20_ AGT  --- 167 cbr 512 [13a 14 15 800] ------- [19:1 20:1 30 20] [1] 3 3
s 78.645408491 _9_ AGT  --- 168 cbr 512 [0 0 0 0] ------- [9:2 11:0 32 0] [11] 0 2
SFESTs 78.645408491 _9_ 168 [9 -> 11] 3(1) to 34 [9 |34 11 ]
r 78.657472409 _11_ AGT  --- 168 cbr 512 [13a b 22 800] ------- [9:2 11:0 31 11] [11] 2 2
s 78.699726842 _12_ AGT  --- 169 cbr 512 [0 0 0 0] ------- [12:2 14:0 32 0] [10] 0 2
SFESTs 78.699726842 _12_ 169 [12 -> 14] 1(1) to 46 [12 |46 22 14 ]
r 78.718200313 _14_ AGT  --- 169 cbr 512 [13a e 16 800] ------- [12:2 14:0 30 14] [10] 3 2
s 79.371595438 _2_ AGT  --- 170 cbr 512 [0 0 0 0] ------- [2:1 3:1 32 0] [0] 0 3
D 79.498366767 _9_ IFQ  ARP 186 DSR 60 [13a 9 9 800] ------- [3:255 2:255 252 2] 4 [0 2] [1 2 4 2->3] [0 0 0 0->0]
D 79.517069979 _9_ IFQ  ARP 184 DSR 68 [13a 9 9 800] ------- [3:255 2:255 251 2] 5 [0 2] [1 2 5 2->3] [0 0 0 0->0]
SFESTs 79.522620348 _2_ 170 [2 -> 3] 1(1) to 9 [2 |9 27 3 ]
r 79.556654817 _3_ AGT  --- 170 cbr 512 [13a 3 1b 800] ------- [2:1 3:1 30 3] [0] 3 3
s 80.506638630 _13_ AGT  --- 190 cbr 512 [0 0 0 0] ------- [13:2 14:1 32 0] [13] 0 3
SFs 80.506638630 _13_ 190 [13 -> 14] 3(0) to 46 
SFf 80.512328671 _46_ 190 [13 -> 14] 3 to 16
SFf 80.518602824 _16_ 190 [13 -> 14] 3 to 14
r 80.524715633 _14_ AGT  --- 190 cbr 512 [13a e 10 800] ------- [13:2 14:1 30 14] [13] 3 3
s 80.665751002 _8_ AGT  --- 191 cbr 512 [0 0 0 0] ------- [8:1 10:0 32 0] [10] 0 2
SFESTs 80.665751002 _8_ 191 [8 -> 10] 3(1) to 18 [8 |18 27 10 ]
r 80.684083981 _10_ AGT  --- 191 cbr 512 [13a a 1b 800] ------- [8:1 10:0 30 10] [10] 3 2
s 81.694663224 _9_ AGT  --- 192 cbr 512 [0 0 0 0] ------- [9:2 11:0 32 0] [12] 0 2
SFs 81.694663224 _9_ 192 [9 -> 11] 3(0) to 34 
SFf 81.700192917 _34_ 192 [9 -> 11] 3 to 11
r 81.706487141 _11_ AGT  --- 192 cbr 512 [13a b 22 800] ------- [9:2 11:0 31 11] [12] 2 2
s 81.709899361 _16_ AGT  --- 193 cbr 512 [0 0 0 0] ------- [16:0 17:0 32 0] [15] 0 1
SFs 81.709899361 _16_ 193 [16 -> 17] 1(0) to 17 
r 81.715809112 _17_ AGT  --- 193 cbr 512 [13a 11 10 800] ------- [16:0 17:0 32 17] [15] 1 1
s 81.883997109 _18_ AGT  --- 194 cbr 512 [0 0 0 0] ------- [18:1 20:0 32 0] [14] 0 2
SFESTs 81.883997109 _18_ 194 [18 -> 20] 1(1) to 42 [18 |42 20 ]
r 81.896280637 _20_ AGT  --- 194 cbr 512 [13a 14 2a 800] ------- [18:1 20:0 31 20] [14] 2 2
s 82.880723949 _12_ AGT  --- 195 cbr 512 [0 0 0 0] ------- [12:2 14:0 32 0] [11] 0 2
SFs 82.880723949 _12_ 195 [12 -> 14] 1(0) to 46 
SFf 82.886474380 _46_ 195 [12 -> 14] 1 to 22
SFf 82.892208322 _22_ 195 [12 -> 14] 1 to 14
r 82.897941421 _14_ AGT  --- 195 cbr 512 [13a e 16 800] ------- [12:2 14:0 30 14] [11] 3 2
s 83.602217233 _18_ AGT  --- 196 cbr 512 [0 0 0 0] ------- [18:0 19:0 32 0] [0] 0 3
SFESTs 83.602217233 _18_ 196 [18 -> 19] 3(1) to 29 [18 |29 1 19 ]
s 83.617903574 _13_ AGT  --- 197 cbr 512 [0 0 0 0] ------- [13:2 14:1 32 0] [14] 0 3
SFESTs 83.617903574 _13_ 197 [13 -> 14] 3(1) to 46 [13 |46 16 14 ]
r 83.620891518 _19_ AGT  --- 196 cbr 512 [13a 13 1 800] ------- [18:0 19:0 30 19] [0] 3 3
r 83.640059376 _14_ AGT  --- 197 cbr 512 [13a e 10 800] ------- [13:2 14:1 30 14] [14] 3 3
s 83.644134711 _20_ AGT  --- 198 cbr 512 [0 0 0 0] ------- [20:2 21:0 32 0] [0] 0 1
SFESTs 83.644134711 _20_ 198 [20 -> 21] 1(1) to 21 [20 |21 ]
r 83.650033105 _21_ AGT  --- 198 cbr 512 [13a 15 14 800] ------- [20:2 21:0 32 21] [0] 1 1
s 83.697687756 _19_ AGT  --- 199 cbr 512 [0 0 0 0] ------- [19:1 20:1 32 0] [2] 0 3
SFESTs 83.697687756 _19_ 199 [19 -> 20] 3(1) to 1 [19 |1 21 20 ]
r 83.716141917 _20_ AGT  --- 199 cbr 512 [13a 14 15 800] ------- [19:1 20:1 30 20] [2] 3 3
s 83.742038453 _8_ AGT  --- 200 cbr 512 [0 0 0 0] ------- [8:1 10:0 32 0] [11] 0 2
SFs 83.742038453 _8_ 200 [8 -> 10] 3(0) to 18 
SFf 83.748028117 _18_ 200 [8 -> 10] 3 to 27
SFf 83.753741057 _27_ 200 [8 -> 10] 3 to 10
r 83.759955432 _10_ AGT  --- 200 cbr 512 [13a a 1b 800] ------- [8:1 10:0 30 10] [11] 3 2
s 83.991036480 _9_ AGT  --- 201 cbr 512 [0 0 0 0] ------- [9:2 11:0 32 0] [13] 0 2
SFESTs 83.991036480 _9_ 201 [9 -> 11] 3(1) to 34 [9 |34 11 ]
r 84.003020397 _11_ AGT  --- 201 cbr 512 [13a b 22 800] ------- [9:2 11:0 31 11] [13] 2 2
s 84.122058422 _18_ AGT  --- 202 cbr 512 [0 0 0 0] ------- [18:1 20:0 32 0] [15] 0 2
SFs 84.122058422 _18_ 202 [18 -> 20] 1(0) to 42 
SFf 84.127768862 _42_ 202 [18 -> 20] 1 to 20
r 84.133621950 _20_ AGT  --- 202 cbr 512 [13a 14 2a 800] ------- [18:1 20:0 31 20] [15] 2 2
s 84.300038287 _2_ AGT  --- 203 cbr 512 [0 0 0 0] ------- [2:1 3:1 32 0] [1] 0 3
SFESTs 84.300038287 _2_ 203 [2 -> 3] 1(1) to 9 [2 |9 27 3 ]
r 84.318332344 _3_ AGT  --- 203 cbr 512 [13a 3 1b 800] ------- [2:1 3:1 30 3] [1] 3 3
s 85.002143199 _16_ AGT  --- 204 cbr 512 [0 0 0 0] ------- [16:0 17:0 32 0] [16] 0 1
SFESTs 85.002143199 _16_ 204 [16 -> 17] 1(1) to 17 [16 |17 ]
r 85.007980951 _17_ AGT  --- 204 cbr 512 [13a 11 10 800] ------- [16:0 17:0 32 17] [16] 1 1
s 85.952487986 _8_ AGT  --- 205 cbr 512 [0 0 0 0] ------- [8:1 10:0 32 0] [12] 0 2
SFESTs 85.952487986 _8_ 205 [8 -> 10] 3(1) to 18 [8 |18 27 10 ]
r 85.971340965 _10_ AGT  --- 205 cbr 512 [13a a 1b 800] ------- [8:1 10:0 30 10] [12] 3 2
s 86.003752443 _13_ AGT  --- 206 cbr 512 [0 0 0 0] ------- [13:2 14:1 32 0] [15] 0 3
SFs 86.003752443 _13_ 206 [13 -> 14] 3(0) to 46 
SFf 86.009402483 _46_ 206 [13 -> 14] 3 to 16
SFf 86.015716637 _16_ 206 [13 -> 14] 3 to 14
r 86.021529445 _14_ AGT  --- 206 cbr 512 [13a e 10 800] ------- [13:2 14:1 30 14] [15] 3 3
s 86.148946697 _18_ AGT  --- 207 cbr 512 [0 0 0 0] ------- [18:1 20:0 32 0] [16] 0 2
SFs 86.148946697 _18_ 207 [18 -> 20] 1(0) to 42 
SFf 86.154757137 _42_ 207 [18 -> 20] 1 to 20
r 86.161070225 _20_ AGT  --- 207 cbr 512 [13a 14 2a 800] ------- [18:1 20:0 31 20] [16] 2 2
s 86.558102131 _12_ AGT  --- 208 cbr 512 [0 0 0 0] ------- [12:2 14:0 32 0] [12] 0 2
SFESTs 86.558102131 _12_ 208 [12 -> 14] 1(1) to 46 [12 |46 22 14 ]
r 86.576875603 _14_ AGT  --- 208 cbr 512 [13a e 16 800] ------- [12:2 14:0 30 14] [12] 3 2
s 86.898234675 _18_ AGT  --- 209 cbr 512 [0 0 0 0] ------- [18:0 19:0 32 0] [1] 0 3
SFESTs 86.898234675 _18_ 209 [18 -> 19] 3(1) to 29 [18 |29 1 19 ]
r 86.916388961 _19_ AGT  --- 209 cbr 512 [13a 13 1 800] ------- [18:0 19:0 30 19] [1] 3 3
s 87.486317469 _19_ AGT  --- 210 cbr 512 [0 0 0 0] ------- [19:1 20:1 32 0] [3] 0 3
SFESTs 87.486317469 _19_ 210 [19 -> 20] 3(1) to 1 [19 |1 21 20 ]
r 87.503931629 _20_ AGT  --- 210 cbr 512 [13a 14 15 800] ------- [19:1 20:1 30 20] [3] 3 3
s 87.826796559 _16_ AGT  --- 211 cbr 512 [0 0 0 0] ------- [16:0 17:0 32 0] [17] 0 1
SFs 87.826796559 _16_ 211 [16 -> 17] 1(0) to 17 
r 87.832506311 _17_ AGT  --- 211 cbr 512 [13a 11 10 800] ------- [16:0 17:0 32 17] [17] 1 1
s 88.321745556 _20_ AGT  --- 212 cbr 512 [0 0 0 0] ------- [20:2 21:0 32 0] [1] 0 1
SFESTs 88.321745556 _20_ 212 [20 -> 21] 1(1) to 21 [20 |21 ]
r 88.327503949 _21_ AGT  --- 212 cbr 512 [13a 15 14 800] ------- [20:2 21:0 32 21] [1] 1 1
s 88.370735860 _13_ AGT  --- 213 cbr 512 [0 0 0 0] ------- [13:2 14:1 32 0] [16] 0 3
SFs 88.370735860 _13_ 213 [13 -> 14] 3(0) to 46 
SFf 88.376305901 _46_ 213 [13 -> 14] 3 to 16
SFf 88.382580054 _16_ 213 [13 -> 14] 3 to 14
r 88.388512863 _14_ AGT  --- 213 cbr 512 [13a e 10 800] ------- [13:2 14:1 30 14] [16] 3 3
s 88.769720756 _12_ AGT  --- 214 cbr 512 [0 0 0 0] ------- [12:2 14:0 32 0] [13] 0 2
SFs 88.769720756 _12_ 214 [12 -> 14] 1(0) to 46 
SFf 88.775591187 _46_ 214 [12 -> 14] 1 to 22
SFf 88.781865129 _22_ 214 [12 -> 14] 1 to 14