M 0.0 nn:50 x:670 y:670 rp:dsr
M 0.0 sc:../mobility/scene/scen-670x670-50-600-20-0 cp:../mobility/scene/cbr-50-20-4-512 seed:0.0
M 0.0 prop:Propagation/TwoRayGround ant:Antenna/OmniAntenna
Sconfig 0.00000 tap: on snoop: rts? on errs? on
Sconfig 0.00000 salvage: on !bd replies? on
Sconfig 0.00000 grat error: on grat reply: on
Sconfig 0.00000 $reply for props: on ring 0 search: on
Sconfig 0.00000 using MOBICACHE
s 22.465028699 _18_ AGT  --- 0 cbr 512 [0 0 0 0] ------- [18:1 20:0 32 0] [0] 0 2
SFESTs 22.622630469 _18_ 0 [18 -> 20] 1(1) to 24 [18 |24 20 ]
r 22.689049176 _20_ AGT  --- 0 cbr 512 [14a 14 18 800] ------- [18:1 20:0 31 20] [0] 2 2
s 23.789830405 _16_ AGT  --- 17 cbr 512 [0 0 0 0] ------- [16:0 17:0 32 0] [0] 0 1
SFESTs 23.806216416 _16_ 17 [16 -> 17] 1(1) to 17 [16 |17 ]
r 23.812242167 _17_ AGT  --- 17 cbr 512 [14a 11 10 800] ------- [16:0 17:0 32 17] [0] 1 1
s 25.415462184 _18_ AGT  --- 21 cbr 512 [0 0 0 0] ------- [18:1 20:0 32 0] [1] 0 2
SFESTs 25.415462184 _18_ 21 [18 -> 20] 1(1) to 24 [18 |24 20 ]
r 25.427418085 _20_ AGT  --- 21 cbr 512 [14a 14 18 800] ------- [18:1 20:0 31 20] [1] 2 2
s 28.009494507 _18_ AGT  --- 22 cbr 512 [0 0 0 0] ------- [18:1 20:0 32 0] [2] 0 2
SFESTs 28.009494507 _18_ 22 [18 -> 20] 1(1) to 24 [18 |24 20 ]
r 28.021870408 _20_ AGT  --- 22 cbr 512 [14a 14 18 800] ------- [18:1 20:0 31 20] [2] 2 2
s 29.031284241 _9_ AGT  --- 23 cbr 512 [0 0 0 0] ------- [9:2 11:0 32 0] [0] 0 2
SFESTs 29.139239510 _9_ 23 [9 -> 11] 1(1) to 14 [9 |14 11 ]
r 29.151534521 _11_ AGT  --- 23 cbr 512 [14a b e 800] ------- [9:2 11:0 31 11] [0] 2 2
s 29.186214479 _16_ AGT  --- 34 cbr 512 [0 0 0 0] ------- [16:0 17:0 32 0] [1] 0 1
SFESTs 29.186214479 _16_ 34 [16 -> 17] 1(1) to 17 [16 |17 ]
r 29.194294863 _17_ AGT  --- 34 cbr 512 [14a 11 10 800] ------- [16:0 17:0 32 17] [1] 1 1
s 30.208176370 _13_ AGT  --- 35 cbr 512 [0 0 0 0] ------- [13:2 14:1 32 0] [0] 0 3
SFESTs 30.219588372 _13_ 35 [13 -> 14] 1(1) to 46 [13 |46 9 14 ]
r 30.252778603 _14_ AGT  --- 35 cbr 512 [14a e 9 800] ------- [13:2 14:1 30 14] [0] 3 3
s 30.573233887 _18_ AGT  --- 42 cbr 512 [0 0 0 0] ------- [18:1 20:0 32 0] [3] 0 2
SFs 30.573233887 _18_ 42 [18 -> 20] 1(0) to 24 
SFf 30.579052291 _24_ 42 [18 -> 20] 1 to 20
r 30.584889788 _20_ AGT  --- 42 cbr 512 [14a 14 18 800] ------- [18:1 20:0 31 20] [3] 2 2
s 31.756197131 _9_ AGT  --- 43 cbr 512 [0 0 0 0] ------- [9:2 11:0 32 0] [1] 0 2
SFESTs 31.756197131 _9_ 43 [9 -> 11] 1(1) to 14 [9 |14 11 ]
r 31.767972142 _11_ AGT  --- 43 cbr 512 [14a b e 800] ------- [9:2 11:0 31 11] [1] 2 2
s 34.005309296 _18_ AGT  --- 44 cbr 512 [0 0 0 0] ------- [18:1 20:0 32 0] [4] 0 2
SFESTs 34.005309296 _18_ 44 [18 -> 20] 1(1) to 24 [18 |24 20 ]
s 34.007767429 _16_ AGT  --- 45 cbr 512 [0 0 0 0] ------- [16:0 17:0 32 0] [2] 0 1
SFESTs 34.007767429 _16_ 45 [16 -> 17] 1(1) to 17 [16 |17 ]
r 34.017145197 _20_ AGT  --- 44 cbr 512 [14a 14 18 800] ------- [18:1 20:0 31 20] [4] 2 2
r 34.023452627 _17_ AGT  --- 45 cbr 512 [14a 11 10 800] ------- [16:0 17:0 32 17] [2] 1 1
s 34.086238509 _13_ AGT  --- 46 cbr 512 [0 0 0 0] ------- [13:2 14:1 32 0] [1] 0 3
SFESTs 34.086238509 _13_ 46 [13 -> 14] 1(1) to 46 [13 |46 9 14 ]
r 34.104787884 _14_ AGT  --- 46 cbr 512 [14a e 9 800] ------- [13:2 14:1 30 14] [1] 3 3
s 36.635642794 _9_ AGT  --- 47 cbr 512 [0 0 0 0] ------- [9:2 11:0 32 0] [2] 0 2
SFESTs 36.635642794 _9_ 47 [9 -> 11] 1(1) to 14 [9 |14 11 ]
r 36.647777805 _11_ AGT  --- 47 cbr 512 [14a b e 800] ------- [9:2 11:0 31 11] [2] 2 2
s 36.899464191 _16_ AGT  --- 48 cbr 512 [0 0 0 0] ------- [16:0 17:0 32 0] [3] 0 1
SFs 36.899464191 _16_ 48 [16 -> 17] 1(0) to 17 
r 36.905421942 _17_ AGT  --- 48 cbr 512 [14a 11 10 800] ------- [16:0 17:0 32 17] [3] 1 1
s 37.145223996 _18_ AGT  --- 49 cbr 512 [0 0 0 0] ------- [18:1 20:0 32 0] [5] 0 2
SFs 37.145223996 _18_ 49 [18 -> 20] 1(0) to 24 
SFf 37.150842400 _24_ 49 [18 -> 20] 1 to 20
r 37.156959897 _20_ AGT  --- 49 cbr 512 [14a 14 18 800] ------- [18:1 20:0 31 20] [5] 2 2
s 37.561464269 _13_ AGT  --- 50 cbr 512 [0 0 0 0] ------- [13:2 14:1 32 0] [2] 0 3
SFESTs 37.561464269 _13_ 50 [13 -> 14] 1(1) to 46 [13 |46 9 14 ]
r 37.579753645 _14_ AGT  --- 50 cbr 512 [14a e 9 800] ------- [13:2 14:1 30 14] [2] 3 3
s 37.953153224 _8_ AGT  --- 51 cbr 512 [0 0 0 0] ------- [8:1 10:0 32 0] [0] 0 2
SFESTs 37.956752532 _8_ 51 [8 -> 10] 1(1) to 39 [8 |39 10 ]
r 37.971802671 _10_ AGT  --- 51 cbr 512 [14a a 27 800] ------- [8:1 10:0 31 10] [0] 2 2
s 40.617033098 _18_ AGT  --- 54 cbr 512 [0 0 0 0] ------- [18:1 20:0 32 0] [6] 0 2
SFESTs 40.617033098 _18_ 54 [18 -> 20] 1(1) to 24 [18 |24 20 ]
r 40.628668999 _20_ AGT  --- 54 cbr 512 [14a 14 18 800] ------- [18:1 20:0 31 20] [6] 2 2
s 40.917940000 _12_ AGT  --- 55 cbr 512 [0 0 0 0] ------- [12:2 14:0 32 0] [0] 0 2
SFESTs 40.917940000 _12_ 55 [12 -> 14] 1(1) to 9 [12 |9 14 ]
r 40.933951737 _14_ AGT  --- 55 cbr 512 [14a e 9 800] ------- [12:2 14:0 31 14] [0] 2 2
s 41.114733064 _8_ AGT  --- 56 cbr 512 [0 0 0 0] ------- [8:1 10:0 32 0] [1] 0 2
SFESTs 41.114733064 _8_ 56 [8 -> 10] 1(1) to 39 [8 |39 10 ]
r 41.126929952 _10_ AGT  --- 56 cbr 512 [14a a 27 800] ------- [8:1 10:0 31 10] [1] 2 2
s 42.083049632 _9_ AGT  --- 57 cbr 512 [0 0 0 0] ------- [9:2 11:0 32 0] [3] 0 2
SFESTs 42.083049632 _9_ 57 [9 -> 11] 1(1) to 14 [9 |14 11 ]
r 42.095384643 _11_ AGT  --- 57 cbr 512 [14a b e 800] ------- [9:2 11:0 31 11] [3] 2 2
s 42.348491706 _16_ AGT  --- 58 cbr 512 [0 0 0 0] ------- [16:0 17:0 32 0] [4] 0 1
SFESTs 42.348491706 _16_ 58 [16 -> 17] 1(1) to 17 [16 |17 ]
r 42.354277457 _17_ AGT  --- 58 cbr 512 [14a 11 10 800] ------- [16:0 17:0 32 17] [4] 1 1
s 42.936765046 _13_ AGT  --- 59 cbr 512 [0 0 0 0] ------- [13:2 14:1 32 0] [3] 0 3
SFESTs 42.936765046 _13_ 59 [13 -> 14] 1(1) to 46 [13 |46 9 14 ]
r 42.955234421 _14_ AGT  --- 59 cbr 512 [14a e 9 800] ------- [13:2 14:1 30 14] [3] 3 3
s 43.703047772 _8_ AGT  --- 60 cbr 512 [0 0 0 0] ------- [8:1 10:0 32 0] [2] 0 2
SFESTs 43.703047772 _8_ 60 [8 -> 10] 1(1) to 39 [8 |39 10 ]
r 43.715364660 _10_ AGT  --- 60 cbr 512 [14a a 27 800] ------- [8:1 10:0 31 10] [2] 2 2
s 43.758024736 _12_ AGT  --- 61 cbr 512 [0 0 0 0] ------- [12:2 14:0 32 0] [1] 0 2
SFESTs 43.758024736 _12_ 61 [12 -> 14] 1(1) to 9 [12 |9 14 ]
r 43.770199417 _14_ AGT  --- 61 cbr 512 [14a e 9 800] ------- [12:2 14:0 31 14] [1] 2 2
s 44.435455399 _9_ AGT  --- 62 cbr 512 [0 0 0 0] ------- [9:2 11:0 32 0] [4] 0 2
SFs 44.435455399 _9_ 62 [9 -> 11] 1(0) to 14 
SFf 44.441452539 _14_ 62 [9 -> 11] 1 to 11
r 44.447470410 _11_ AGT  --- 62 cbr 512 [14a b e 800] ------- [9:2 11:0 31 11] [4] 2 2
s 44.668688356 _16_ AGT  --- 63 cbr 512 [0 0 0 0] ------- [16:0 17:0 32 0] [5] 0 1
SFs 44.668688356 _16_ 63 [16 -> 17] 1(0) to 17 
r 44.674186107 _17_ AGT  --- 63 cbr 512 [14a 11 10 800] ------- [16:0 17:0 32 17] [5] 1 1
s 46.383914379 _18_ AGT  --- 64 cbr 512 [0 0 0 0] ------- [18:1 20:0 32 0] [7] 0 2
SFESTs 46.383914379 _18_ 64 [18 -> 20] 1(1) to 24 [18 |24 20 ]
r 46.396450280 _20_ AGT  --- 64 cbr 512 [14a 14 18 800] ------- [18:1 20:0 31 20] [7] 2 2
s 47.318818200 _13_ AGT  --- 65 cbr 512 [0 0 0 0] ------- [13:2 14:1 32 0] [4] 0 3
SFs 47.318818200 _13_ 65 [13 -> 14] 1(0) to 46 
SFf 47.324356241 _46_ 65 [13 -> 14] 1 to 9
SFf 47.330594436 _9_ 65 [13 -> 14] 1 to 14
r 47.336471576 _14_ AGT  --- 65 cbr 512 [14a e 9 800] ------- [13:2 14:1 30 14] [4] 3 3
s 48.187085743 _12_ AGT  --- 66 cbr 512 [0 0 0 0] ------- [12:2 14:0 32 0] [2] 0 2
SFESTs 48.187085743 _12_ 66 [12 -> 14] 1(1) to 9 [12 |9 14 ]
r 48.198780424 _14_ AGT  --- 66 cbr 512 [14a e 9 800] ------- [12:2 14:0 31 14] [2] 2 2
s 48.209370751 _16_ AGT  --- 67 cbr 512 [0 0 0 0] ------- [16:0 17:0 32 0] [6] 0 1
SFESTs 48.209370751 _16_ 67 [16 -> 17] 1(1) to 17 [16 |17 ]
r 48.215156502 _17_ AGT  --- 67 cbr 512 [14a 11 10 800] ------- [16:0 17:0 32 17] [6] 1 1
s 48.705131991 _8_ AGT  --- 68 cbr 512 [0 0 0 0] ------- [8:1 10:0 32 0] [3] 0 2
SFESTs 48.705131991 _8_ 68 [8 -> 10] 1(1) to 39 [8 |39 10 ]
r 48.717448879 _10_ AGT  --- 68 cbr 512 [14a a 27 800] ------- [8:1 10:0 31 10] [3] 2 2
s 49.456978871 _13_ AGT  --- 69 cbr 512 [0 0 0 0] ------- [13:2 14:1 32 0] [5] 0 3
SFESTs 49.456978871 _13_ 69 [13 -> 14] 1(1) to 46 [13 |46 9 14 ]
r 49.476208246 _14_ AGT  --- 69 cbr 512 [14a e 9 800] ------- [13:2 14:1 30 14] [5] 3 3
s 49.581570133 _9_ AGT  --- 70 cbr 512 [0 0 0 0] ------- [9:2 11:0 32 0] [5] 0 2
SFESTs 49.581570133 _9_ 70 [9 -> 11] 1(1) to 14 [9 |14 11 ]
r 49.593705144 _11_ AGT  --- 70 cbr 512 [14a b e 800] ------- [9:2 11:0 31 11] [5] 2 2
s 51.632467482 _12_ AGT  --- 71 cbr 512 [0 0 0 0] ------- [12:2 14:0 32 0] [3] 0 2
SFs 51.632467482 _12_ 71 [12 -> 14] 1(0) to 9 
SFf 51.638225023 _9_ 71 [12 -> 14] 1 to 14
r 51.644282163 _14_ AGT  --- 71 cbr 512 [14a e 9 800] ------- [12:2 14:0 31 14] [3] 2 2
s 51.768177039 _16_ AGT  --- 72 cbr 512 [0 0 0 0] ------- [16:0 17:0 32 0] [7] 0 1
SFs 51.768177039 _16_ 72 [16 -> 17] 1(0) to 17 
r 51.774134790 _17_ AGT  --- 72 cbr 512 [14a 11 10 800] ------- [16:0 17:0 32 17] [7] 1 1
s 52.262085912 _18_ AGT  --- 73 cbr 512 [0 0 0 0] ------- [18:1 20:0 32 0] [8] 0 2
SFESTs 52.262085912 _18_ 73 [18 -> 20] 1(1) to 24 [18 |24 20 ]
r 52.274121812 _20_ AGT  --- 73 cbr 512 [14a 14 18 800] ------- [18:1 20:0 31 20] [8] 2 2
s 52.367753989 _9_ AGT  --- 74 cbr 512 [0 0 0 0] ------- [9:2 11:0 32 0] [6] 0 2
SFs 52.367753989 _9_ 74 [9 -> 11] 1(0) to 14 
SFf 52.373831129 _14_ 74 [9 -> 11] 1 to 11
r 52.379869000 _11_ AGT  --- 74 cbr 512 [14a b e 800] ------- [9:2 11:0 31 11] [6] 2 2
s 53.041433349 _13_ AGT  --- 75 cbr 512 [0 0 0 0] ------- [13:2 14:1 32 0] [6] 0 3
SFs 53.041433349 _13_ 75 [13 -> 14] 1(0) to 46 
SFf 53.047371389 _46_ 75 [13 -> 14] 1 to 9
SFf 53.053269585 _9_ 75 [13 -> 14] 1 to 14
r 53.059426724 _14_ AGT  --- 75 cbr 512 [14a e 9 800] ------- [13:2 14:1 30 14] [6] 3 3
s 54.378587392 _18_ AGT  --- 76 cbr 512 [0 0 0 0] ------- [18:1 20:0 32 0] [9] 0 2
SFs 54.378587392 _18_ 76 [18 -> 20] 1(0) to 24 
SFf 54.384265796 _24_ 76 [18 -> 20] 1 to 20
r 54.390603292 _20_ AGT  --- 76 cbr 512 [14a 14 18 800] ------- [18:1 20:0 31 20] [9] 2 2
s 54.466323718 _8_ AGT  --- 77 cbr 512 [0 0 0 0] ------- [8:1 10:0 32 0] [4] 0 2
SFESTs 54.466323718 _8_ 77 [8 -> 10] 1(1) to 39 [8 |39 10 ]
r 54.479020606 _10_ AGT  --- 77 cbr 512 [14a a 27 800] ------- [8:1 10:0 31 10] [4] 2 2
s 55.011490190 _9_ AGT  --- 78 cbr 512 [0 0 0 0] ------- [9:2 11:0 32 0] [7] 0 2
SFESTs 55.011490190 _9_ 78 [9 -> 11] 1(1) to 14 [9 |14 11 ]
r 55.023485201 _11_ AGT  --- 78 cbr 512 [14a b e 800] ------- [9:2 11:0 31 11] [7] 2 2
s 55.704526469 _16_ AGT  --- 79 cbr 512 [0 0 0 0] ------- [16:0 17:0 32 0] [8] 0 1
SFESTs 55.704526469 _16_ 79 [16 -> 17] 1(1) to 17 [16 |17 ]
r 55.710612220 _17_ AGT  --- 79 cbr 512 [14a 11 10 800] ------- [16:0 17:0 32 17] [8] 1 1
s 56.818167381 _12_ AGT  --- 80 cbr 512 [0 0 0 0] ------- [12:2 14:0 32 0] [4] 0 2
SFESTs 56.818167381 _12_ 80 [12 -> 14] 1(1) to 9 [12 |9 14 ]
r 56.830582062 _14_ AGT  --- 80 cbr 512 [14a e 9 800] ------- [12:2 14:0 31 14] [4] 2 2
s 57.080774830 _9_ AGT  --- 81 cbr 512 [0 0 0 0] ------- [9:2 11:0 32 0] [8] 0 2
SFs 57.080774830 _9_ 81 [9 -> 11] 1(0) to 14 
SFf 57.086831970 _14_ 81 [9 -> 11] 1 to 11
r 57.092749841 _11_ AGT  --- 81 cbr 512 [14a b e 800] ------- [9:2 11:0 31 11] [8] 2 2
s 57.772423584 _13_ AGT  --- 82 cbr 512 [0 0 0 0] ------- [13:2 14:1 32 0] [7] 0 3
SFESTs 57.772423584 _13_ 82 [13 -> 14] 1(1) to 46 [13 |46 9 14 ]
r 57.790512960 _14_ AGT  --- 82 cbr 512 [14a e 9 800] ------- [13:2 14:1 30 14] [7] 3 3
s 58.675601237 _8_ AGT  --- 83 cbr 512 [0 0 0 0] ------- [8:1 10:0 32 0] [5] 0 2
SFs 58.675601237 _8_ 83 [8 -> 10] 1(0) to 39 
SFf 58.681139675 _39_ 83 [8 -> 10] 1 to 10
r 58.687318125 _10_ AGT  --- 83 cbr 512 [14a a 27 800] ------- [8:1 10:0 31 10] [5] 2 2
s 59.389967069 _18_ AGT  --- 84 cbr 512 [0 0 0 0] ------- [18:1 20:0 32 0] [10] 0 2
SFESTs 59.389967069 _18_ 84 [18 -> 20] 1(1) to 24 [18 |24 20 ]
r 59.402242970 _20_ AGT  --- 84 cbr 512 [14a 14 18 800] ------- [18:1 20:0 31 20] [10] 2 2
s 59.651719920 _16_ AGT  --- 85 cbr 512 [0 0 0 0] ------- [16:0 17:0 32 0] [9] 0 1
SFs 59.651719920 _16_ 85 [16 -> 17] 1(0) to 17 
r 59.657797671 _17_ AGT  --- 85 cbr 512 [14a 11 10 800] ------- [16:0 17:0 32 17] [9] 1 1
s 60.113858394 _9_ AGT  --- 86 cbr 512 [0 0 0 0] ------- [9:2 11:0 32 0] [9] 0 2
SFESTs 60.113858394 _9_ 86 [9 -> 11] 1(1) to 14 [9 |14 11 ]
r 60.125653405 _11_ AGT  --- 86 cbr 512 [14a b e 800] ------- [9:2 11:0 31 11] [9] 2 2
s 60.226307518 _12_ AGT  --- 87 cbr 512 [0 0 0 0] ------- [12:2 14:0 32 0] [5] 0 2
SFs 60.226307518 _12_ 87 [12 -> 14] 1(0) to 9 
SFf 60.232205060 _9_ 87 [12 -> 14] 1 to 14
r 60.238162199 _14_ AGT  --- 87 cbr 512 [14a e 9 800] ------- [12:2 14:0 31 14] [5] 2 2
s 61.711037154 _16_ AGT  --- 88 cbr 512 [0 0 0 0] ------- [16:0 17:0 32 0] [10] 0 1
SFESTs 61.711037154 _16_ 88 [16 -> 17] 1(1) to 17 [16 |17 ]
r 61.717202905 _17_ AGT  --- 88 cbr 512 [14a 11 10 800] ------- [16:0 17:0 32 17] [10] 1 1
s 62.327326915 _13_ AGT  --- 89 cbr 512 [0 0 0 0] ------- [13:2 14:1 32 0] [8] 0 3
SFs 62.327326915 _13_ 89 [13 -> 14] 1(0) to 46 
SFf 62.333344955 _46_ 89 [13 -> 14] 1 to 9
SFf 62.339703150 _9_ 89 [13 -> 14] 1 to 14
r 62.346060290 _14_ AGT  --- 89 cbr 512 [14a e 9 800] ------- [13:2 14:1 30 14] [8] 3 3
s 63.510982052 _12_ AGT  --- 90 cbr 512 [0 0 0 0] ------- [12:2 14:0 32 0] [6] 0 2
SFESTs 63.510982052 _12_ 90 [12 -> 14] 1(1) to 9 [12 |9 14 ]
r 63.522996733 _14_ AGT  --- 90 cbr 512 [14a e 9 800] ------- [12:2 14:0 31 14] [6] 2 2
s 64.143869822 _8_ AGT  --- 91 cbr 512 [0 0 0 0] ------- [8:1 10:0 32 0] [6] 0 2
SFESTs 64.143869822 _8_ 91 [8 -> 10] 1(1) to 39 [8 |39 10 ]
r 64.156046710 _10_ AGT  --- 91 cbr 512 [14a a 27 800] ------- [8:1 10:0 31 10] [6] 2 2
s 64.654302370 _18_ AGT  --- 92 cbr 512 [0 0 0 0] ------- [18:1 20:0 32 0] [11] 0 2
SFESTs 64.654302370 _18_ 92 [18 -> 20] 1(1) to 24 [18 |24 20 ]
r 64.666318270 _20_ AGT  --- 92 cbr 512 [14a 14 18 800] ------- [18:1 20:0 31 20] [11] 2 2
s 64.842974465 _9_ AGT  --- 93 cbr 512 [0 0 0 0] ------- [9:2 11:0 32 0] [10] 0 2
SFs 64.842974465 _9_ 93 [9 -> 11] 1(0) to 14 
SFf 64.848631605 _14_ 93 [9 -> 11] 1 to 11
r 64.854469476 _11_ AGT  --- 93 cbr 512 [14a b e 800] ------- [9:2 11:0 31 11] [10] 2 2
s 67.131068902 _16_ AGT  --- 94 cbr 512 [0 0 0 0] ------- [16:0 17:0 32 0] [11] 0 1
SFESTs 67.131068902 _16_ 94 [16 -> 17] 1(1) to 17 [16 |17 ]
r 67.136894653 _17_ AGT  --- 94 cbr 512 [14a 11 10 800] ------- [16:0 17:0 32 17] [11] 1 1
s 67.298194225 _12_ AGT  --- 95 cbr 512 [0 0 0 0] ------- [12:2 14:0 32 0] [7] 0 2
SFs 67.298194225 _12_ 95 [12 -> 14] 1(0) to 9 
SFf 67.304291766 _9_ 95 [12 -> 14] 1 to 14
r 67.310388906 _14_ AGT  --- 95 cbr 512 [14a e 9 800] ------- [12:2 14:0 31 14] [7] 2 2
s 67.749617100 _13_ AGT  --- 96 cbr 512 [0 0 0 0] ------- [13:2 14:1 32 0] [9] 0 3
SFESTs 67.749617100 _13_ 96 [13 -> 14] 1(1) to 46 [13 |46 9 14 ]
r 67.768226476 _14_ AGT  --- 96 cbr 512 [14a e 9 800] ------- [13:2 14:1 30 14] [9] 3 3
s 67.838332988 _8_ AGT  --- 97 cbr 512 [0 0 0 0] ------- [8:1 10:0 32 0] [7] 0 2
SFs 67.838332988 _8_ 97 [8 -> 10] 1(0) to 39 
SFf 67.844291426 _39_ 97 [8 -> 10] 1 to 10
r 67.850449876 _10_ AGT  --- 97 cbr 512 [14a a 27 800] ------- [8:1 10:0 31 10] [7] 2 2
s 67.887388280 _18_ AGT  --- 98 cbr 512 [0 0 0 0] ------- [18:1 20:0 32 0] [12] 0 2
SFs 67.887388280 _18_ 98 [18 -> 20] 1(0) to 24 
SFf 67.892946684 _24_ 98 [18 -> 20] 1 to 20
r 67.899084180 _20_ AGT  --- 98 cbr 512 [14a 14 18 800] ------- [18:1 20:0 31 20] [12] 2 2
s 68.620008184 _9_ AGT  --- 99 cbr 512 [0 0 0 0] ------- [9:2 11:0 32 0] [11] 0 2
SFESTs 68.620008184 _9_ 99 [9 -> 11] 1(1) to 14 [9 |14 11 ]
r 68.632083195 _11_ AGT  --- 99 cbr 512 [14a b e 800] ------- [9:2 11:0 31 11] [11] 2 2
s 70.975702269 _13_ AGT  --- 100 cbr 512 [0 0 0 0] ------- [13:2 14:1 32 0] [10] 0 3
SFs 70.975702269 _13_ 100 [13 -> 14] 1(0) to 46 
SFf 70.981320310 _46_ 100 [13 -> 14] 1 to 9
SFf 70.987198505 _9_ 100 [13 -> 14] 1 to 14
r 70.993415645 _14_ AGT  --- 100 cbr 512 [14a e 9 800] ------- [13:2 14:1 30 14] [10] 3 3
s 71.514297817 _8_ AGT  --- 101 cbr 512 [0 0 0 0] ------- [8:1 10:0 32 0] [8] 0 2
SFESTs 71.514297817 _8_ 101 [8 -> 10] 1(1) to 39 [8 |39 10 ]
r 71.526434705 _10_ AGT  --- 101 cbr 512 [14a a 27 800] ------- [8:1 10:0 31 10] [8] 2 2
s 72.153790421 _16_ AGT  --- 102 cbr 512 [0 0 0 0] ------- [16:0 17:0 32 0] [12] 0 1
SFESTs 72.153790421 _16_ 102 [16 -> 17] 1(1) to 17 [16 |17 ]
r 72.159936172 _17_ AGT  --- 102 cbr 512 [14a 11 10 800] ------- [16:0 17:0 32 17] [12] 1 1
s 72.775874366 _18_ AGT  --- 103 cbr 512 [0 0 0 0] ------- [18:1 20:0 32 0] [13] 0 2
SFESTs 72.775874366 _18_ 103 [18 -> 20] 1(1) to 24 [18 |24 20 ]
r 72.788030267 _20_ AGT  --- 103 cbr 512 [14a 14 18 800] ------- [18:1 20:0 31 20] [13] 2 2
s 73.025186987 _12_ AGT  --- 104 cbr 512 [0 0 0 0] ------- [12:2 14:0 32 0] [8] 0 2
SFESTs 73.025186987 _12_ 104 [12 -> 14] 1(1) to 9 [12 |9 14 ]
s 73.033501847 _9_ AGT  --- 105 cbr 512 [0 0 0 0] ------- [9:2 11:0 32 0] [12] 0 2
SFs 73.033501847 _9_ 105 [9 -> 11] 1(0) to 14 
r 73.037261668 _14_ AGT  --- 104 cbr 512 [14a e 9 800] ------- [12:2 14:0 31 14] [8] 2 2
SFf 73.043399187 _14_ 105 [9 -> 11] 1 to 11
r 73.049457059 _11_ AGT  --- 105 cbr 512 [14a b e 800] ------- [9:2 11:0 31 11] [12] 2 2
s 74.119106788 _8_ AGT  --- 106 cbr 512 [0 0 0 0] ------- [8:1 10:0 32 0] [9] 0 2
SFs 74.119106788 _8_ 106 [8 -> 10] 1(0) to 39 
SFf 74.124645226 _39_ 106 [8 -> 10] 1 to 10
r 74.130883676 _10_ AGT  --- 106 cbr 512 [14a a 27 800] ------- [8:1 10:0 31 10] [9] 2 2
s 75.172879291 _13_ AGT  --- 107 cbr 512 [0 0 0 0] ------- [13:2 14:1 32 0] [11] 0 3
SFESTs 75.172879291 _13_ 107 [13 -> 14] 1(1) to 46 [13 |46 9 14 ]
r 75.191028667 _14_ AGT  --- 107 cbr 512 [14a e 9 800] ------- [13:2 14:1 30 14] [11] 3 3
s 75.477956243 _19_ AGT  --- 108 cbr 512 [0 0 0 0] ------- [19:1 20:1 32 0] [0] 0 3
SFESTs 75.558375826 _19_ 108 [19 -> 20] 1(1) to 12 [19 |12 21 20 ]
D 75.597021047 _9_ IFQ  ARP 120 DSR 80 [14a 9 9 800] ------- [27:255 19:255 253 33] 5 [0 2] [1 2 8 19->20] [0 0 0 0->0]
D 75.608605656 _9_ IFQ  ARP 117 DSR 80 [14a 9 9 800] ------- [0:255 19:255 253 33] 5 [0 2] [1 2 8 19->20] [0 0 0 0->0]
SSendFailure 75.615056063 _9_ 122 37 6:255 19:255 9->33 1 4 2 5 [6 34 |9 33 19 ]
D 75.615056063 _9_ RTR  CBK 122 DSR 80 [14a 9 9 800] ------- [6:255 19:255 253 33] 5 [0 2] [0 2 8 19->20] [0 0 0 0->0]
SSendFailure 75.615056063 _9_ 119 37 47:255 19:255 9->33 1 3 2 5 [47 34 |9 33 19 ]
D 75.615056063 _9_ RTR  CBK 119 DSR 80 [14a 9 9 800] ------- [47:255 19:255 253 33] 5 [0 2] [0 2 8 19->20] [0 0 0 0->0]
D 75.631207875 _9_ IFQ  ARP 118 DSR 80 [14a 9 9 800] ------- [7:255 19:255 253 33] 5 [0 2] [1 2 8 19->20] [0 0 0 0->0]
r 75.656201679 _20_ AGT  --- 108 cbr 512 [14a 14 15 800] ------- [19:1 20:1 30 20] [0] 3 3
D 75.676469768 _33_ IFQ  ARP 121 DSR 80 [14a 21 21 800] ------- [37:255 19:255 252 19] 5 [0 2] [1 2 8 19->20] [0 0 0 0->0]
s 75.694989945 _16_ AGT  --- 127 cbr 512 [0 0 0 0] ------- [16:0 17:0 32 0] [13] 0 1
SFs 75.694989945 _16_ 127 [16 -> 17] 1(0) to 17 
r 75.703090155 _17_ AGT  --- 127 cbr 512 [14a 11 10 800] ------- [16:0 17:0 32 17] [13] 1 1
s 75.944177518 _12_ AGT  --- 128 cbr 512 [0 0 0 0] ------- [12:2 14:0 32 0] [9] 0 2
SFs 75.944177518 _12_ 128 [12 -> 14] 1(0) to 9 
SFf 75.950175060 _9_ 128 [12 -> 14] 1 to 14
r 75.955952199 _14_ AGT  --- 128 cbr 512 [14a e 9 800] ------- [12:2 14:0 31 14] [9] 2 2
s 76.123498397 _8_ AGT  --- 129 cbr 512 [0 0 0 0] ------- [8:1 10:0 32 0] [10] 0 2
SFs 76.123498397 _8_ 129 [8 -> 10] 1(0) to 39 
SFf 76.129196835 _39_ 129 [8 -> 10] 1 to 10
r 76.135155285 _10_ AGT  --- 129 cbr 512 [14a a 27 800] ------- [8:1 10:0 31 10] [10] 2 2
s 76.945658700 _18_ AGT  --- 130 cbr 512 [0 0 0 0] ------- [18:1 20:0 32 0] [14] 0 2
SFs 76.945658700 _18_ 130 [18 -> 20] 1(0) to 24 
SFf 76.951417103 _24_ 130 [18 -> 20] 1 to 20
r 76.957254600 _20_ AGT  --- 130 cbr 512 [14a 14 18 800] ------- [18:1 20:0 31 20] [14] 2 2
s 78.085972444 _9_ AGT  --- 131 cbr 512 [0 0 0 0] ------- [9:2 11:0 32 0] [13] 0 2
SFESTs 78.085972444 _9_ 131 [9 -> 11] 1(1) to 14 [9 |14 11 ]
r 78.098067455 _11_ AGT  --- 131 cbr 512 [14a b e 800] ------- [9:2 11:0 31 11] [13] 2 2
s 78.656593272 _19_ AGT  --- 132 cbr 512 [0 0 0 0] ------- [19:1 20:1 32 0] [1] 0 3
SFESTs 78.656593272 _19_ 132 [19 -> 20] 1(1) to 12 [19 |12 21 20 ]
r 78.675443436 _20_ AGT  --- 132 cbr 512 [14a 14 15 800] ------- [19:1 20:1 30 20] [1] 3 3
s 79.327328781 _8_ AGT  --- 133 cbr 512 [0 0 0 0] ------- [8:1 10:0 32 0] [11] 0 2
SFESTs 79.327328781 _8_ 133 [8 -> 10] 1(1) to 39 [8 |39 10 ]
r 79.338945669 _10_ AGT  --- 133 cbr 512 [14a a 27 800] ------- [8:1 10:0 31 10] [11] 2 2
s 79.371595438 _2_ AGT  --- 134 cbr 512 [0 0 0 0] ------- [2:1 3:1 32 0] [0] 0 3
D 79.523332324 _27_ IFQ  ARP 142 DSR 68 [14a 1b 1b 800] ------- [3:255 2:255 252 43] 5 [0 2] [1 2 5 2->3] [0 0 0 0->0]
D 79.532086154 _27_ IFQ  ARP 138 DSR 60 [14a 1b 1b 800] ------- [3:255 2:255 253 43] 4 [0 2] [1 2 4 2->3] [0 0 0 0->0]
SSendFailure 79.543644096 _27_ 143 37 3:255 2:255 27->43 1 3 2 5 [3 48 |27 43 2 ]
D 79.543644096 _27_ RTR  CBK 143 DSR 68 [14a 1b 1b 800] ------- [3:255 2:255 252 43] 5 [0 2] [0 2 5 2->3] [0 0 0 0->0]
SSendFailure 79.543644096 _27_ 139 37 3:255 2:255 27->43 1 3 2 5 [3 38 |27 43 2 ]
D 79.543644096 _27_ RTR  CBK 139 DSR 68 [14a 1b 1b 800] ------- [3:255 2:255 252 43] 5 [0 2] [0 2 5 2->3] [0 0 0 0->0]
SFESTs 79.582083147 _2_ 134 [2 -> 3] 1(1) to 43 [2 |43 27 48 24 3 ]
r 79.642444889 _3_ AGT  --- 134 cbr 512 [14a 3 18 800] ------- [2:1 3:1 28 3] [0] 5 3
s 80.164302558 _16_ AGT  --- 156 cbr 512 [0 0 0 0] ------- [16:0 17:0 32 0] [14] 0 1
SFESTs 80.164302558 _16_ 156 [16 -> 17] 1(1) to 17 [16 |17 ]
r 80.170348309 _17_ AGT  --- 156 cbr 512 [14a 11 10 800] ------- [16:0 17:0 32 17] [14] 1 1
s 80.661238129 _12_ AGT  --- 157 cbr 512 [0 0 0 0] ------- [12:2 14:0 32 0] [10] 0 2
SFESTs 80.661238129 _12_ 157 [12 -> 14] 1(1) to 9 [12 |9 14 ]
r 80.673232810 _14_ AGT  --- 157 cbr 512 [14a e 9 800] ------- [12:2 14:0 31 14] [10] 2 2
s 80.756937783 _13_ AGT  --- 158 cbr 512 [0 0 0 0] ------- [13:2 14:1 32 0] [12] 0 3
SFESTs 80.756937783 _13_ 158 [13 -> 14] 1(1) to 46 [13 |46 9 14 ]
r 80.775407158 _14_ AGT  --- 158 cbr 512 [14a e 9 800] ------- [13:2 14:1 30 14] [12] 3 3
s 81.718587414 _18_ AGT  --- 159 cbr 512 [0 0 0 0] ------- [18:1 20:0 32 0] [15] 0 2
SFESTs 81.718587414 _18_ 159 [18 -> 20] 1(1) to 24 [18 |24 20 ]
r 81.730883314 _20_ AGT  --- 159 cbr 512 [14a 14 18 800] ------- [18:1 20:0 31 20] [15] 2 2
s 81.953545161 _19_ AGT  --- 160 cbr 512 [0 0 0 0] ------- [19:1 20:1 32 0] [2] 0 3
SFESTs 81.953545161 _19_ 160 [19 -> 20] 1(1) to 12 [19 |12 21 20 ]
r 81.972015324 _20_ AGT  --- 160 cbr 512 [14a 14 15 800] ------- [19:1 20:1 30 20] [2] 3 3
s 82.875056697 _9_ AGT  --- 161 cbr 512 [0 0 0 0] ------- [9:2 11:0 32 0] [14] 0 2
SFs 82.875056697 _9_ 161 [9 -> 11] 1(0) to 14 
SFf 82.881093837 _14_ 161 [9 -> 11] 1 to 11
r 82.887291708 _11_ AGT  --- 161 cbr 512 [14a b e 800] ------- [9:2 11:0 31 11] [14] 2 2
s 83.267131695 _2_ AGT  --- 162 cbr 512 [0 0 0 0] ------- [2:1 3:1 32 0] [1] 0 3
SFESTs 83.267131695 _2_ 162 [2 -> 3] 3(1) to 43 [2 |43 46 3 ]
r 83.285621216 _3_ AGT  --- 162 cbr 512 [14a 3 2e 800] ------- [2:1 3:1 30 3] [1] 3 3
s 83.602217233 _18_ AGT  --- 163 cbr 512 [0 0 0 0] ------- [18:0 19:0 32 0] [0] 0 3
SFESTs 83.602217233 _18_ 163 [18 -> 19] 3(1) to 21 [18 |21 12 19 ]
r 83.623764440 _19_ AGT  --- 163 cbr 512 [14a 13 c 800] ------- [18:0 19:0 30 19] [0] 3 3
s 83.644134711 _20_ AGT  --- 164 cbr 512 [0 0 0 0] ------- [20:2 21:0 32 0] [0] 0 1
SFESTs 83.644134711 _20_ 164 [20 -> 21] 1(1) to 21 [20 |21 ]
r 83.652839296 _21_ AGT  --- 164 cbr 512 [14a 15 14 800] ------- [20:2 21:0 32 21] [0] 1 1
s 84.696132429 _8_ AGT  --- 165 cbr 512 [0 0 0 0] ------- [8:1 10:0 32 0] [12] 0 2
SFESTs 84.696132429 _8_ 165 [8 -> 10] 1(1) to 39 [8 |39 10 ]
r 84.708129317 _10_ AGT  --- 165 cbr 512 [14a a 27 800] ------- [8:1 10:0 31 10] [12] 2 2
s 85.291362534 _9_ AGT  --- 166 cbr 512 [0 0 0 0] ------- [9:2 11:0 32 0] [15] 0 2
SFESTs 85.291362534 _9_ 166 [9 -> 11] 1(1) to 14 [9 |14 11 ]
r 85.303237545 _11_ AGT  --- 166 cbr 512 [14a b e 800] ------- [9:2 11:0 31 11] [15] 2 2
s 86.080642982 _16_ AGT  --- 167 cbr 512 [0 0 0 0] ------- [16:0 17:0 32 0] [15] 0 1
SFESTs 86.080642982 _16_ 167 [16 -> 17] 1(1) to 17 [16 |17 ]
r 86.086528734 _17_ AGT  --- 167 cbr 512 [14a 11 10 800] ------- [16:0 17:0 32 17] [15] 1 1
s 86.320826729 _12_ AGT  --- 168 cbr 512 [0 0 0 0] ------- [12:2 14:0 32 0] [11] 0 2
SFESTs 86.320826729 _12_ 168 [12 -> 14] 1(1) to 9 [12 |9 14 ]
r 86.332961410 _14_ AGT  --- 168 cbr 512 [14a e 9 800] ------- [12:2 14:0 31 14] [11] 2 2
s 86.365964391 _2_ AGT  --- 169 cbr 512 [0 0 0 0] ------- [2:1 3:1 32 0] [2] 0 3
SFESTs 86.365964391 _2_ 169 [2 -> 3] 3(1) to 43 [2 |43 46 3 ]
r 86.384773912 _3_ AGT  --- 169 cbr 512 [14a 3 2e 800] ------- [2:1 3:1 30 3] [2] 3 3
s 86.445744215 _19_ AGT  --- 170 cbr 512 [0 0 0 0] ------- [19:1 20:1 32 0] [3] 0 3
SFs 86.445744215 _19_ 170 [19 -> 20] 1(0) to 12 
SFf 86.451362237 _12_ 170 [19 -> 20] 1 to 21
SFf 86.457319985 _21_ 170 [19 -> 20] 1 to 20
r 86.463338378 _20_ AGT  --- 170 cbr 512 [14a 14 15 800] ------- [19:1 20:1 30 20] [3] 3 3
s 86.622769975 _13_ AGT  --- 171 cbr 512 [0 0 0 0] ------- [13:2 14:1 32 0] [13] 0 3
SFESTs 86.622769975 _13_ 171 [13 -> 14] 1(1) to 46 [13 |46 9 14 ]
r 86.641079350 _14_ AGT  --- 171 cbr 512 [14a e 9 800] ------- [13:2 14:1 30 14] [13] 3 3
s 87.171342376 _20_ AGT  --- 172 cbr 512 [0 0 0 0] ------- [20:2 21:0 32 0] [1] 0 1
SFESTs 87.171342376 _20_ 172 [20 -> 21] 1(1) to 21 [20 |21 ]
r 87.177568770 _21_ AGT  --- 172 cbr 512 [14a 15 14 800] ------- [20:2 21:0 32 21] [1] 1 1
s 87.224057744 _18_ AGT  --- 173 cbr 512 [0 0 0 0] ------- [18:1 20:0 32 0] [16] 0 2
SFESTs 87.224057744 _18_ 173 [18 -> 20] 1(1) to 24 [18 |24 20 ]
r 87.236213645 _20_ AGT  --- 173 cbr 512 [14a 14 18 800] ------- [18:1 20:0 31 20] [16] 2 2
s 87.852188515 _18_ AGT  --- 174 cbr 512 [0 0 0 0] ------- [18:0 19:0 32 0] [1] 0 3
SFESTs 87.852188515 _18_ 174 [18 -> 19] 3(1) to 21 [18 |21 12 19 ]
s 87.857924814 _8_ AGT  --- 175 cbr 512 [0 0 0 0] ------- [8:1 10:0 32 0] [13] 0 2
SFs 87.857924814 _8_ 175 [8 -> 10] 1(0) to 39 
r 87.870598187 _19_ AGT  --- 174 cbr 512 [14a 13 c 800] ------- [18:0 19:0 30 19] [1] 3 3
SFf 87.876507390 _39_ 175 [8 -> 10] 1 to 10
r 87.882765840 _10_ AGT  --- 175 cbr 512 [14a a 27 800] ------- [8:1 10:0 31 10] [13] 2 2
s 89.579150449 _12_ AGT  --- 176 cbr 512 [0 0 0 0] ------- [12:2 14:0 32 0] [12] 0 2
SFs 89.579150449 _12_ 176 [12 -> 14] 1(0) to 9 
SFf 89.584847991 _9_ 176 [12 -> 14] 1 to 14
r 89.591205130 _14_ AGT  --- 176 cbr 512 [14a e 9 800] ------- [12:2 14:0 31 14] [12] 2 2
s 89.833090555 _13_ AGT  --- 177 cbr 512 [0 0 0 0] ------- [13:2 14:1 32 0] [14] 0 3
SFs 89.833090555 _13_ 177 [13 -> 14] 1(0) to 46 
SFf 89.838728596 _46_ 177 [13 -> 14] 1 to 9
SFf 89.844586791 _9_ 177 [13 -> 14] 1 to 14
r 89.850443931 _14_ AGT  --- 177 cbr 512 [14a e 9 800] ------- [13:2 14:1 30 14] [14] 3 3
s 90.138255151 _9_ AGT  --- 178 cbr 512 [0 0 0 0] ------- [9:2 11:0 32 0] [16] 0 2
SFs 90.138255151 _9_ 178 [9 -> 11] 1(0) to 14 
SFf 90.144252291 _14_ 178 [9 -> 11] 1 to 11
r 90.150210162 _11_ AGT  --- 178 cbr 512 [14a b e 800] ------- [9:2 11:0 31 11] [16] 2 2
s 90.335155085 _16_ AGT  --- 179 cbr 512 [0 0 0 0] ------- [16:0 17:0 32 0] [16] 0 1
SFs 90.335155085 _16_ 179 [16 -> 17] 1(0) to 17 
r 90.340932836 _17_ AGT  --- 179 cbr 512 [14a 11 10 800] ------- [16:0 17:0 32 17] [16] 1 1
s 90.671109219 _2_ AGT  --- 180 cbr 512 [0 0 0 0] ------- [2:1 3:1 32 0] [3] 0 3
SFESTs 90.671109219 _2_ 180 [2 -> 3] 3(1) to 43 [2 |43 46 3 ]
r 90.689858741 _3_ AGT  --- 180 cbr 512 [14a 3 2e 800] ------- [2:1 3:1 30 3] [3] 3 3
s 90.977253129 _8_ AGT  --- 181 cbr 512 [0 0 0 0] ------- [8:1 10:0 32 0] [14] 0 2
SFESTs 90.977253129 _8_ 181 [8 -> 10] 1(1) to 39 [8 |39 10 ]
r 90.989610017 _10_ AGT  --- 181 cbr 512 [14a a 27 800] ------- [8:1 10:0 31 10] [14] 2 2
s 92.026915976 _19_ AGT  --- 182 cbr 512 [0 0 0 0] ------- [19:1 20:1 32 0] [4] 0 3
SFESTs 92.026915976 _19_ 182 [19 -> 20] 1(1) to 12 [19 |12 21 20 ]
r 92.045846140 _20_ AGT  --- 182 cbr 512 [14a 14 15 800] ------- [19:1 20:1 30 20] [4] 3 3
s 92.135920460 _13_ AGT  --- 183 cbr 512 [0 0 0 0] ------- [13:2 14:1 32 0] [15] 0 3
SFESTs 92.135920460 _13_ 183 [13 -> 14] 1(1) to 46 [13 |46 9 14 ]
r 92.154349835 _14_ AGT  --- 183 cbr 512 [14a e 9 800] ------- [13:2 14:1 30 14] [15] 3 3
s 92.187218615 _18_ AGT  --- 184 cbr 512 [0 0 0 0] ------- [18:1 20:0 32 0] [17] 0 2
SFs 92.187218615 _18_ 184 [18 -> 20] 1(0) to 24 
SFf 92.192817018 _24_ 184 [18 -> 20] 1 to 20
r 92.198934515 _20_ AGT  --- 184 cbr 512 [14a 14 18 800] ------- [18:1 20:0 31 20] [17] 2 2
s 92.229359204 _18_ AGT  --- 185 cbr 512 [0 0 0 0] ------- [18:0 19:0 32 0] [2] 0 3
SFESTs 92.229359204 _18_ 185 [18 -> 19] 3(1) to 21 [18 |21 12 19 ]
r 92.247868876 _19_ AGT  --- 185 cbr 512 [14a 13 c 800] ------- [18:0 19:0 30 19] [2] 3 3
s 92.663473465 _20_ AGT  --- 186 cbr 512 [0 0 0 0] ------- [20:2 21:0 32 0] [2] 0 1
SFESTs 92.663473465 _20_ 186 [20 -> 21] 1(1) to 21 [20 |21 ]
r 92.669159859 _21_ AGT  --- 186 cbr 512 [14a 15 14 800] ------- [20:2 21:0 32 21] [2] 1 1
s 93.986624459 _12_ AGT  --- 187 cbr 512 [0 0 0 0] ------- [12:2 14:0 32 0] [13] 0 2
SFESTs 93.986624459 _12_ 187 [12 -> 14] 1(1) to 9 [12 |9 14 ]
r 93.998799140 _14_ AGT  --- 187 cbr 512 [14a e 9 800] ------- [12:2 14:0 31 14] [13] 2 2
s 94.355806400 _2_ AGT  --- 188 cbr 512 [0 0 0 0] ------- [2:1 3:1 32 0] [4] 0 3
SFs 94.355806400 _2_ 188 [2 -> 3] 3(0) to 43 
SFf 94.361464221 _43_ 188 [2 -> 3] 3 to 46
SFf 94.367842238 _46_ 188 [2 -> 3] 3 to 3
r 94.373919921 _3_ AGT  --- 188 cbr 512 [14a 3 2e 800] ------- [2:1 3:1 30 3] [4] 3 3
s 94.729019794 _8_ AGT  --- 189 cbr 512 [0 0 0 0] ------- [8:1 10:0 32 0] [15] 0 2
SFs 94.729019794 _8_ 189 [8 -> 10] 1(0) to 39 
SFf 94.734958232 _39_ 189 [8 -> 10] 1 to 10
r 94.741176682 _10_ AGT  --- 189 cbr 512 [14a a 27 800] ------- [8:1 10:0 31 10] [15] 2 2
s 94.764033560 _9_ AGT  --- 190 cbr 512 [0 0 0 0] ------- [9:2 11:0 32 0] [17] 0 2
SFESTs 94.764033560 _9_ 190 [9 -> 11] 1(1) to 14 [9 |14 11 ]