M 0.0 nn:50 x:670 y:670 rp:dsdv
M 0.0 sc:../mobility/scene/scen-670x670-50-600-20-0 cp:../mobility/scene/cbr-50-20-4-512 seed:0.0
M 0.0 prop:Propagation/TwoRayGround ant:Antenna/OmniAntenna
s 22.465028699 _18_ AGT  --- 229 cbr 512 [0 0 0 0] ------- [18:1 20:0 32 0] [0] 0 2
s 23.789830405 _16_ AGT  --- 230 cbr 512 [0 0 0 0] ------- [16:0 17:0 32 0] [0] 0 1
r 23.807625879 _17_ AGT  --- 230 cbr 532 [13a 11 22 800] ------- [16:0 17:0 31 17] [0] 2 1
s 27.562167430 _16_ AGT  --- 401 cbr 512 [0 0 0 0] ------- [16:0 17:0 32 0] [1] 0 1
r 27.574960192 _17_ AGT  --- 401 cbr 532 [13a 11 22 800] ------- [16:0 17:0 31 17] [1] 2 1
s 27.832222972 _18_ AGT  --- 405 cbr 512 [0 0 0 0] ------- [18:1 20:0 32 0] [1] 0 2
s 29.031284241 _9_ AGT  --- 412 cbr 512 [0 0 0 0] ------- [9:2 11:0 32 0] [0] 0 2
r 29.058028927 _11_ AGT  --- 412 cbr 532 [13a b 11 800] ------- [9:2 11:0 30 11] [0] 3 2
s 30.208176370 _13_ AGT  --- 415 cbr 512 [0 0 0 0] ------- [13:2 14:1 32 0] [0] 0 3
s 30.586201677 _16_ AGT  --- 417 cbr 512 [0 0 0 0] ------- [16:0 17:0 32 0] [2] 0 1
r 30.598364023 _17_ AGT  --- 417 cbr 532 [13a 11 22 800] ------- [16:0 17:0 31 17] [2] 2 1
s 31.667426077 _9_ AGT  --- 418 cbr 512 [0 0 0 0] ------- [9:2 11:0 32 0] [1] 0 2
r 31.685621371 _11_ AGT  --- 418 cbr 532 [13a b 11 800] ------- [9:2 11:0 30 11] [1] 3 2
s 32.138173525 _18_ AGT  --- 419 cbr 512 [0 0 0 0] ------- [18:1 20:0 32 0] [2] 0 2
s 32.500874033 _13_ AGT  --- 420 cbr 512 [0 0 0 0] ------- [13:2 14:1 32 0] [1] 0 3
s 33.221376566 _16_ AGT  --- 421 cbr 512 [0 0 0 0] ------- [16:0 17:0 32 0] [3] 0 1
r 33.233038912 _17_ AGT  --- 421 cbr 532 [13a 11 22 800] ------- [16:0 17:0 31 17] [3] 2 1
s 34.356553204 _9_ AGT  --- 422 cbr 512 [0 0 0 0] ------- [9:2 11:0 32 0] [2] 0 2
r 34.374268498 _11_ AGT  --- 422 cbr 532 [13a b 11 800] ------- [9:2 11:0 30 11] [2] 3 2
s 35.392564973 _18_ AGT  --- 423 cbr 512 [0 0 0 0] ------- [18:1 20:0 32 0] [3] 0 2
s 36.931081271 _13_ AGT  --- 479 cbr 512 [0 0 0 0] ------- [13:2 14:1 32 0] [2] 0 3
s 37.914219345 _16_ AGT  --- 532 cbr 512 [0 0 0 0] ------- [16:0 17:0 32 0] [4] 0 1
r 37.928877330 _17_ AGT  --- 532 cbr 532 [13a 11 e 800] ------- [16:0 17:0 31 17] [4] 2 1
s 37.953153224 _8_ AGT  --- 534 cbr 512 [0 0 0 0] ------- [8:1 10:0 32 0] [0] 0 2
s 38.244775162 _9_ AGT  --- 573 cbr 512 [0 0 0 0] ------- [9:2 11:0 32 0] [3] 0 2
r 38.268963217 _11_ AGT  --- 573 cbr 532 [13a b 11 800] ------- [9:2 11:0 29 11] [3] 4 2
s 40.072473382 _18_ AGT  --- 625 cbr 512 [0 0 0 0] ------- [18:1 20:0 32 0] [4] 0 2
s 40.400176649 _9_ AGT  --- 628 cbr 512 [0 0 0 0] ------- [9:2 11:0 32 0] [4] 0 2
r 40.423624704 _11_ AGT  --- 628 cbr 532 [13a b 11 800] ------- [9:2 11:0 29 11] [4] 4 2
s 40.917940000 _12_ AGT  --- 629 cbr 512 [0 0 0 0] ------- [12:2 14:0 32 0] [0] 0 2
r 40.936016362 _14_ AGT  --- 629 cbr 532 [13a e 2b 800] ------- [12:2 14:0 31 14] [0] 2 2
s 41.588411652 _8_ AGT  --- 631 cbr 512 [0 0 0 0] ------- [8:1 10:0 32 0] [1] 0 2
s 41.967597013 _16_ AGT  --- 632 cbr 512 [0 0 0 0] ------- [16:0 17:0 32 0] [5] 0 1
r 41.979358919 _17_ AGT  --- 632 cbr 532 [13a 11 e 800] ------- [16:0 17:0 31 17] [5] 2 1
s 42.472887603 _13_ AGT  --- 633 cbr 512 [0 0 0 0] ------- [13:2 14:1 32 0] [3] 0 3
s 43.191692594 _9_ AGT  --- 634 cbr 512 [0 0 0 0] ------- [9:2 11:0 32 0] [5] 0 2
r 43.216000649 _11_ AGT  --- 634 cbr 532 [13a b 11 800] ------- [9:2 11:0 29 11] [5] 4 2
s 45.050847407 _18_ AGT  --- 635 cbr 512 [0 0 0 0] ------- [18:1 20:0 32 0] [5] 0 2
D 45.050847407 _18_ RTR  IFQ 229 cbr 532 [0 0 0 0] ------- [18:1 20:0 32 0] [0] 0 2
s 46.540251200 _9_ AGT  --- 636 cbr 512 [0 0 0 0] ------- [9:2 11:0 32 0] [6] 0 2
r 46.563739255 _11_ AGT  --- 636 cbr 532 [13a b 11 800] ------- [9:2 11:0 29 11] [6] 4 2
s 46.707565550 _12_ AGT  --- 637 cbr 512 [0 0 0 0] ------- [12:2 14:0 32 0] [1] 0 2
r 46.719728276 _14_ AGT  --- 637 cbr 532 [13a e 2b 800] ------- [12:2 14:0 31 14] [1] 2 2
s 46.823376223 _13_ AGT  --- 638 cbr 512 [0 0 0 0] ------- [13:2 14:1 32 0] [4] 0 3
s 46.857675427 _16_ AGT  --- 639 cbr 512 [0 0 0 0] ------- [16:0 17:0 32 0] [6] 0 1
r 46.869837333 _17_ AGT  --- 639 cbr 532 [13a 11 e 800] ------- [16:0 17:0 31 17] [6] 2 1
s 47.440742445 _8_ AGT  --- 641 cbr 512 [0 0 0 0] ------- [8:1 10:0 32 0] [2] 0 2
D 47.793369824 _18_ IFQ  ARP 405 cbr 552 [0 0 12 800] ------- [18:1 20:0 32 48] [1] 0 2
D 47.793369824 _18_ IFQ  ARP 419 cbr 552 [0 0 12 800] ------- [18:1 20:0 32 48] [2] 0 2
D 47.793369824 _18_ RTR  CBK 423 cbr 552 [0 0 12 800] ------- [18:1 20:0 32 48] [3] 0 2
D 47.793369824 _18_ RTR  CBK 625 cbr 552 [0 0 12 800] ------- [18:1 20:0 32 48] [4] 0 2
r 47.828824705 _20_ AGT  --- 635 cbr 552 [13a 14 2a 800] ------- [18:1 20:0 30 20] [5] 3 2
s 48.632871204 _9_ AGT  --- 688 cbr 512 [0 0 0 0] ------- [9:2 11:0 32 0] [7] 0 2
r 48.659596249 _11_ AGT  --- 688 cbr 532 [13a b 11 800] ------- [9:2 11:0 29 11] [7] 4 2
s 49.336750470 _12_ AGT  --- 743 cbr 512 [0 0 0 0] ------- [12:2 14:0 32 0] [2] 0 2
r 49.348753197 _14_ AGT  --- 743 cbr 532 [13a e 2b 800] ------- [12:2 14:0 31 14] [2] 2 2
s 50.098743682 _13_ AGT  --- 781 cbr 512 [0 0 0 0] ------- [13:2 14:1 32 0] [5] 0 3
D 50.098743682 _13_ RTR  IFQ 415 cbr 532 [0 0 0 0] ------- [13:2 14:1 32 0] [0] 0 3
s 50.698523758 _18_ AGT  --- 795 cbr 512 [0 0 0 0] ------- [18:1 20:0 32 0] [6] 0 2
r 50.722172077 _20_ AGT  --- 795 cbr 532 [13a 14 29 800] ------- [18:1 20:0 30 20] [6] 3 2
s 50.821496661 _16_ AGT  --- 798 cbr 512 [0 0 0 0] ------- [16:0 17:0 32 0] [7] 0 1
r 50.832898568 _17_ AGT  --- 798 cbr 532 [13a 11 e 800] ------- [16:0 17:0 31 17] [7] 2 1
s 51.900412933 _8_ AGT  --- 826 cbr 512 [0 0 0 0] ------- [8:1 10:0 32 0] [3] 0 2
s 52.919952393 _9_ AGT  --- 838 cbr 512 [0 0 0 0] ------- [9:2 11:0 32 0] [8] 0 2
r 52.943620918 _11_ AGT  --- 838 cbr 532 [13a b 11 800] ------- [9:2 11:0 29 11] [8] 4 2
s 54.551012226 _13_ AGT  --- 841 cbr 512 [0 0 0 0] ------- [13:2 14:1 32 0] [6] 0 3
D 54.551012226 _13_ RTR  IFQ 420 cbr 532 [0 0 0 0] ------- [13:2 14:1 32 0] [1] 0 3
s 54.683343956 _12_ AGT  --- 842 cbr 512 [0 0 0 0] ------- [12:2 14:0 32 0] [3] 0 2
r 54.694786683 _14_ AGT  --- 842 cbr 532 [13a e 2b 800] ------- [12:2 14:0 31 14] [3] 2 2
s 55.247329178 _18_ AGT  --- 843 cbr 512 [0 0 0 0] ------- [18:1 20:0 32 0] [7] 0 2
r 55.265084550 _20_ AGT  --- 843 cbr 532 [13a 14 29 800] ------- [18:1 20:0 30 20] [7] 3 2
s 55.272036135 _8_ AGT  --- 844 cbr 512 [0 0 0 0] ------- [8:1 10:0 32 0] [4] 0 2
s 56.452229227 _16_ AGT  --- 845 cbr 512 [0 0 0 0] ------- [16:0 17:0 32 0] [8] 0 1
r 56.464071134 _17_ AGT  --- 845 cbr 532 [13a 11 e 800] ------- [16:0 17:0 31 17] [8] 2 1
s 57.356210369 _13_ AGT  --- 846 cbr 512 [0 0 0 0] ------- [13:2 14:1 32 0] [7] 0 3
D 57.356210369 _13_ RTR  IFQ 479 cbr 532 [0 0 0 0] ------- [13:2 14:1 32 0] [2] 0 3
s 57.961750911 _9_ AGT  --- 847 cbr 512 [0 0 0 0] ------- [9:2 11:0 32 0] [9] 0 2
r 57.985579436 _11_ AGT  --- 847 cbr 532 [13a b 11 800] ------- [9:2 11:0 29 11] [9] 4 2
s 58.401697499 _18_ AGT  --- 848 cbr 512 [0 0 0 0] ------- [18:1 20:0 32 0] [8] 0 2
r 58.419532871 _20_ AGT  --- 848 cbr 532 [13a 14 29 800] ------- [18:1 20:0 30 20] [8] 3 2
s 58.572430032 _12_ AGT  --- 849 cbr 512 [0 0 0 0] ------- [12:2 14:0 32 0] [4] 0 2
r 58.584012758 _14_ AGT  --- 849 cbr 532 [13a e 2b 800] ------- [12:2 14:0 31 14] [4] 2 2
s 60.239025602 _8_ AGT  --- 893 cbr 512 [0 0 0 0] ------- [8:1 10:0 32 0] [5] 0 2
D 60.239025602 _8_ RTR  IFQ 534 cbr 532 [0 0 0 0] ------- [8:1 10:0 32 0] [0] 0 2
s 61.761456005 _13_ AGT  --- 948 cbr 512 [0 0 0 0] ------- [13:2 14:1 32 0] [8] 0 3
D 61.761456005 _13_ RTR  IFQ 633 cbr 532 [0 0 0 0] ------- [13:2 14:1 32 0] [3] 0 3
s 61.852648420 _9_ AGT  --- 953 cbr 512 [0 0 0 0] ------- [9:2 11:0 32 0] [10] 0 2
r 61.870503695 _11_ AGT  --- 953 cbr 532 [13a b 11 800] ------- [9:2 11:0 30 11] [10] 3 2
s 62.227462075 _16_ AGT  --- 988 cbr 512 [0 0 0 0] ------- [16:0 17:0 32 0] [9] 0 1
r 62.238743835 _17_ AGT  --- 988 cbr 532 [13a 11 a 800] ------- [16:0 17:0 31 17] [9] 2 1
s 62.595480892 _18_ AGT  --- 995 cbr 512 [0 0 0 0] ------- [18:1 20:0 32 0] [9] 0 2
r 62.613236264 _20_ AGT  --- 995 cbr 532 [13a 14 29 800] ------- [18:1 20:0 30 20] [9] 3 2
s 62.686681804 _8_ AGT  --- 999 cbr 512 [0 0 0 0] ------- [8:1 10:0 32 0] [6] 0 2
D 62.686681804 _8_ RTR  IFQ 631 cbr 532 [0 0 0 0] ------- [8:1 10:0 32 0] [1] 0 2
s 63.664496426 _12_ AGT  --- 1034 cbr 512 [0 0 0 0] ------- [12:2 14:0 32 0] [5] 0 2
r 63.676139152 _14_ AGT  --- 1034 cbr 532 [13a e 2b 800] ------- [12:2 14:0 31 14] [5] 2 2
s 63.871424063 _9_ AGT  --- 1042 cbr 512 [0 0 0 0] ------- [9:2 11:0 32 0] [11] 0 2
r 63.889359338 _11_ AGT  --- 1042 cbr 532 [13a b 11 800] ------- [9:2 11:0 30 11] [11] 3 2
s 65.932136566 _18_ AGT  --- 1064 cbr 512 [0 0 0 0] ------- [18:1 20:0 32 0] [10] 0 2
r 65.949971938 _20_ AGT  --- 1064 cbr 532 [13a 14 29 800] ------- [18:1 20:0 30 20] [10] 3 2
s 65.957724255 _12_ AGT  --- 1065 cbr 512 [0 0 0 0] ------- [12:2 14:0 32 0] [6] 0 2
r 65.969326981 _14_ AGT  --- 1065 cbr 532 [13a e 2b 800] ------- [12:2 14:0 31 14] [6] 2 2
s 66.196192991 _13_ AGT  --- 1066 cbr 512 [0 0 0 0] ------- [13:2 14:1 32 0] [9] 0 3
D 66.196192991 _13_ RTR  IFQ 638 cbr 532 [0 0 0 0] ------- [13:2 14:1 32 0] [4] 0 3
s 66.485506430 _9_ AGT  --- 1067 cbr 512 [0 0 0 0] ------- [9:2 11:0 32 0] [12] 0 2
r 66.503601705 _11_ AGT  --- 1067 cbr 532 [13a b 11 800] ------- [9:2 11:0 30 11] [12] 3 2
s 67.271419014 _8_ AGT  --- 1068 cbr 512 [0 0 0 0] ------- [8:1 10:0 32 0] [7] 0 2
D 67.271419014 _8_ RTR  IFQ 641 cbr 532 [0 0 0 0] ------- [8:1 10:0 32 0] [2] 0 2
s 67.499526536 _16_ AGT  --- 1069 cbr 512 [0 0 0 0] ------- [16:0 17:0 32 0] [10] 0 1
r 67.511568295 _17_ AGT  --- 1069 cbr 532 [13a 11 a 800] ------- [16:0 17:0 31 17] [10] 2 1
s 68.028948520 _12_ AGT  --- 1070 cbr 512 [0 0 0 0] ------- [12:2 14:0 32 0] [7] 0 2
r 68.040171246 _14_ AGT  --- 1070 cbr 532 [13a e 2b 800] ------- [12:2 14:0 31 14] [7] 2 2
s 68.198734645 _13_ AGT  --- 1071 cbr 512 [0 0 0 0] ------- [13:2 14:1 32 0] [10] 0 3
D 68.198734645 _13_ RTR  IFQ 781 cbr 532 [0 0 0 0] ------- [13:2 14:1 32 0] [5] 0 3
s 70.660057796 _9_ AGT  --- 1072 cbr 512 [0 0 0 0] ------- [9:2 11:0 32 0] [13] 0 2
r 70.677513071 _11_ AGT  --- 1072 cbr 532 [13a b 11 800] ------- [9:2 11:0 30 11] [13] 3 2
s 70.812403127 _13_ AGT  --- 1073 cbr 512 [0 0 0 0] ------- [13:2 14:1 32 0] [11] 0 3
D 70.812403127 _13_ RTR  IFQ 841 cbr 532 [0 0 0 0] ------- [13:2 14:1 32 0] [6] 0 3
s 70.946599942 _16_ AGT  --- 1075 cbr 512 [0 0 0 0] ------- [16:0 17:0 32 0] [11] 0 1
s 70.958105405 _12_ AGT  --- 1076 cbr 512 [0 0 0 0] ------- [12:2 14:0 32 0] [8] 0 2
r 70.958381701 _17_ AGT  --- 1075 cbr 532 [13a 11 a 800] ------- [16:0 17:0 31 17] [11] 2 1
r 70.971168132 _14_ AGT  --- 1076 cbr 532 [13a e 2b 800] ------- [12:2 14:0 31 14] [8] 2 2
s 71.598055031 _18_ AGT  --- 1087 cbr 512 [0 0 0 0] ------- [18:1 20:0 32 0] [11] 0 2
r 71.629872707 _20_ AGT  --- 1087 cbr 532 [13a 14 18 800] ------- [18:1 20:0 29 20] [11] 4 2
s 72.836685695 _13_ AGT  --- 1140 cbr 512 [0 0 0 0] ------- [13:2 14:1 32 0] [12] 0 3
D 72.836685695 _13_ RTR  IFQ 846 cbr 532 [0 0 0 0] ------- [13:2 14:1 32 0] [7] 0 3
s 73.029871412 _8_ AGT  --- 1151 cbr 512 [0 0 0 0] ------- [8:1 10:0 32 0] [8] 0 2
D 73.029871412 _8_ RTR  IFQ 826 cbr 532 [0 0 0 0] ------- [8:1 10:0 32 0] [3] 0 2
s 73.657298217 _16_ AGT  --- 1175 cbr 512 [0 0 0 0] ------- [16:0 17:0 32 0] [12] 0 1
r 73.668900123 _17_ AGT  --- 1175 cbr 532 [13a 11 e 800] ------- [16:0 17:0 31 17] [12] 2 1
s 74.762578568 _18_ AGT  --- 1216 cbr 512 [0 0 0 0] ------- [18:1 20:0 32 0] [12] 0 2
r 74.786926951 _20_ AGT  --- 1216 cbr 532 [13a 14 18 800] ------- [18:1 20:0 29 20] [12] 4 2
s 75.073025965 _13_ AGT  --- 1239 cbr 512 [0 0 0 0] ------- [13:2 14:1 32 0] [13] 0 3
D 75.073025965 _13_ RTR  IFQ 948 cbr 532 [0 0 0 0] ------- [13:2 14:1 32 0] [8] 0 3
D 75.193040027 _8_ IFQ  ARP 844 cbr 552 [0 0 8 800] ------- [8:1 10:0 32 3] [4] 0 2
D 75.193040027 _8_ IFQ  ARP 893 cbr 552 [0 0 8 800] ------- [8:1 10:0 32 3] [5] 0 2
D 75.193040027 _8_ RTR  CBK 999 cbr 552 [0 0 8 800] ------- [8:1 10:0 32 3] [6] 0 2
D 75.193040027 _8_ RTR  CBK 1068 cbr 552 [0 0 8 800] ------- [8:1 10:0 32 3] [7] 0 2
s 75.199228287 _8_ AGT  --- 1243 cbr 512 [0 0 0 0] ------- [8:1 10:0 32 0] [9] 0 2
D 75.211594410 _3_ IFQ  ARP 1151 cbr 552 [13a 3 3 800] ------- [8:1 10:0 31 4] [8] 1 2
r 75.254378969 _10_ AGT  --- 1243 cbr 532 [13a a 1d 800] ------- [8:1 10:0 28 10] [9] 5 2
s 75.298723433 _12_ AGT  --- 1246 cbr 512 [0 0 0 0] ------- [12:2 14:0 32 0] [9] 0 2
r 75.310766160 _14_ AGT  --- 1246 cbr 532 [13a e 2b 800] ------- [12:2 14:0 31 14] [9] 2 2
s 75.477956243 _19_ AGT  --- 1248 cbr 512 [0 0 0 0] ------- [19:1 20:1 32 0] [0] 0 3
s 75.751194004 _9_ AGT  --- 1252 cbr 512 [0 0 0 0] ------- [9:2 11:0 32 0] [14] 0 2
r 75.769029278 _11_ AGT  --- 1252 cbr 532 [13a b 11 800] ------- [9:2 11:0 30 11] [14] 3 2
s 77.405618857 _8_ AGT  --- 1275 cbr 512 [0 0 0 0] ------- [8:1 10:0 32 0] [10] 0 2
r 77.435600674 _10_ AGT  --- 1275 cbr 532 [13a a 1d 800] ------- [8:1 10:0 28 10] [10] 5 2
s 78.763597851 _18_ AGT  --- 1276 cbr 512 [0 0 0 0] ------- [18:1 20:0 32 0] [13] 0 2
r 78.788006234 _20_ AGT  --- 1276 cbr 532 [13a 14 18 800] ------- [18:1 20:0 29 20] [13] 4 2
s 79.138318651 _16_ AGT  --- 1277 cbr 512 [0 0 0 0] ------- [16:0 17:0 32 0] [13] 0 1
r 79.149980558 _17_ AGT  --- 1277 cbr 532 [13a 11 e 800] ------- [16:0 17:0 31 17] [13] 2 1
s 79.371595438 _2_ AGT  --- 1278 cbr 512 [0 0 0 0] ------- [2:1 3:1 32 0] [0] 0 3
s 79.766978954 _12_ AGT  --- 1279 cbr 512 [0 0 0 0] ------- [12:2 14:0 32 0] [10] 0 2
r 79.778961680 _14_ AGT  --- 1279 cbr 532 [13a e 2b 800] ------- [12:2 14:0 31 14] [10] 2 2
s 80.373544223 _8_ AGT  --- 1280 cbr 512 [0 0 0 0] ------- [8:1 10:0 32 0] [11] 0 2
r 80.403566039 _10_ AGT  --- 1280 cbr 532 [13a a 1d 800] ------- [8:1 10:0 28 10] [11] 5 2
s 80.547743477 _13_ AGT  --- 1281 cbr 512 [0 0 0 0] ------- [13:2 14:1 32 0] [14] 0 3
D 80.547743477 _13_ RTR  IFQ 1066 cbr 532 [0 0 0 0] ------- [13:2 14:1 32 0] [9] 0 3
s 80.805013289 _9_ AGT  --- 1282 cbr 512 [0 0 0 0] ------- [9:2 11:0 32 0] [15] 0 2
r 80.822688563 _11_ AGT  --- 1282 cbr 532 [13a b 11 800] ------- [9:2 11:0 30 11] [15] 3 2
s 81.149380141 _19_ AGT  --- 1283 cbr 512 [0 0 0 0] ------- [19:1 20:1 32 0] [1] 0 3
s 81.768513668 _2_ AGT  --- 1284 cbr 512 [0 0 0 0] ------- [2:1 3:1 32 0] [1] 0 3
s 83.540067175 _13_ AGT  --- 1305 cbr 512 [0 0 0 0] ------- [13:2 14:1 32 0] [15] 0 3
D 83.540067175 _13_ RTR  IFQ 1071 cbr 532 [0 0 0 0] ------- [13:2 14:1 32 0] [10] 0 3
r 83.550332910 _3_ AGT  --- 1278 cbr 552 [13a 3 12 800] ------- [2:1 3:1 27 3] [0] 6 3
r 83.570743616 _3_ AGT  --- 1284 cbr 552 [13a 3 12 800] ------- [2:1 3:1 27 3] [1] 6 3
s 83.602217233 _18_ AGT  --- 1306 cbr 512 [0 0 0 0] ------- [18:0 19:0 32 0] [0] 0 3
s 83.644134711 _20_ AGT  --- 1307 cbr 512 [0 0 0 0] ------- [20:2 21:0 32 0] [0] 0 1
r 83.646641989 _19_ AGT  --- 1306 cbr 532 [13a 13 2d 800] ------- [18:0 19:0 27 19] [0] 6 3
r 83.658613847 _21_ AGT  --- 1307 cbr 532 [13a 15 2a 800] ------- [20:2 21:0 31 21] [0] 2 1
s 83.809150211 _18_ AGT  --- 1312 cbr 512 [0 0 0 0] ------- [18:1 20:0 32 0] [14] 0 2
r 83.832638593 _20_ AGT  --- 1312 cbr 532 [13a 14 18 800] ------- [18:1 20:0 29 20] [14] 4 2
s 83.984589804 _12_ AGT  --- 1317 cbr 512 [0 0 0 0] ------- [12:2 14:0 32 0] [11] 0 2
r 83.996392530 _14_ AGT  --- 1317 cbr 532 [13a e 2b 800] ------- [12:2 14:0 31 14] [11] 2 2
s 84.125102125 _8_ AGT  --- 1323 cbr 512 [0 0 0 0] ------- [8:1 10:0 32 0] [12] 0 2
r 84.155103340 _10_ AGT  --- 1323 cbr 532 [13a a 1d 800] ------- [8:1 10:0 28 10] [12] 5 2
s 84.418901354 _19_ AGT  --- 1346 cbr 512 [0 0 0 0] ------- [19:1 20:1 32 0] [2] 0 3
s 84.693778620 _16_ AGT  --- 1356 cbr 512 [0 0 0 0] ------- [16:0 17:0 32 0] [14] 0 1
r 84.705420526 _17_ AGT  --- 1356 cbr 532 [13a 11 e 800] ------- [16:0 17:0 31 17] [14] 2 1
s 85.533424173 _9_ AGT  --- 1388 cbr 512 [0 0 0 0] ------- [9:2 11:0 32 0] [16] 0 2
r 85.551759448 _11_ AGT  --- 1388 cbr 532 [13a b 11 800] ------- [9:2 11:0 30 11] [16] 3 2
s 86.575292033 _2_ AGT  --- 1425 cbr 512 [0 0 0 0] ------- [2:1 3:1 32 0] [2] 0 3
r 86.610906790 _3_ AGT  --- 1425 cbr 532 [13a 3 12 800] ------- [2:1 3:1 27 3] [2] 6 3
s 87.202079286 _13_ AGT  --- 1445 cbr 512 [0 0 0 0] ------- [13:2 14:1 32 0] [16] 0 3
D 87.202079286 _13_ RTR  IFQ 1073 cbr 532 [0 0 0 0] ------- [13:2 14:1 32 0] [11] 0 3
s 87.241306586 _20_ AGT  --- 1447 cbr 512 [0 0 0 0] ------- [20:2 21:0 32 0] [1] 0 1
r 87.253008980 _21_ AGT  --- 1447 cbr 532 [13a 15 2a 800] ------- [20:2 21:0 31 21] [1] 2 1
s 87.755418611 _18_ AGT  --- 1452 cbr 512 [0 0 0 0] ------- [18:1 20:0 32 0] [15] 0 2
r 87.784800173 _20_ AGT  --- 1452 cbr 532 [13a 14 2a 800] ------- [18:1 20:0 29 20] [15] 4 2
s 87.990762783 _8_ AGT  --- 1458 cbr 512 [0 0 0 0] ------- [8:1 10:0 32 0] [13] 0 2
r 88.020823998 _10_ AGT  --- 1458 cbr 532 [13a a 1d 800] ------- [8:1 10:0 28 10] [13] 5 2
s 88.267319809 _18_ AGT  --- 1463 cbr 512 [0 0 0 0] ------- [18:0 19:0 32 0] [1] 0 3
r 88.303335056 _19_ AGT  --- 1463 cbr 532 [13a 13 2d 800] ------- [18:0 19:0 27 19] [1] 6 3
s 88.528896128 _16_ AGT  --- 1465 cbr 512 [0 0 0 0] ------- [16:0 17:0 32 0] [15] 0 1
r 88.540538035 _17_ AGT  --- 1465 cbr 532 [13a 11 e 800] ------- [16:0 17:0 31 17] [15] 2 1
s 89.443073717 _19_ AGT  --- 1471 cbr 512 [0 0 0 0] ------- [19:1 20:1 32 0] [3] 0 3
s 89.944663714 _12_ AGT  --- 1473 cbr 512 [0 0 0 0] ------- [12:2 14:0 32 0] [12] 0 2
r 89.956446441 _14_ AGT  --- 1473 cbr 532 [13a e 2b 800] ------- [12:2 14:0 31 14] [12] 2 2
s 90.087598022 _13_ AGT  --- 1474 cbr 512 [0 0 0 0] ------- [13:2 14:1 32 0] [17] 0 3
D 90.087598022 _13_ RTR  IFQ 1140 cbr 532 [0 0 0 0] ------- [13:2 14:1 32 0] [12] 0 3
s 90.496691488 _18_ AGT  --- 1475 cbr 512 [0 0 0 0] ------- [18:1 20:0 32 0] [16] 0 2
r 90.520000097 _20_ AGT  --- 1475 cbr 532 [13a 14 2a 800] ------- [18:1 20:0 29 20] [16] 4 2
s 91.530816937 _9_ AGT  --- 1477 cbr 512 [0 0 0 0] ------- [9:2 11:0 32 0] [17] 0 2
r 91.548832212 _11_ AGT  --- 1477 cbr 532 [13a b 11 800] ------- [9:2 11:0 30 11] [17] 3 2
s 91.553672015 _20_ AGT  --- 1478 cbr 512 [0 0 0 0] ------- [20:2 21:0 32 0] [2] 0 1
r 91.565094409 _21_ AGT  --- 1478 cbr 532 [13a 15 2a 800] ------- [20:2 21:0 31 21] [2] 2 1
s 92.195742055 _8_ AGT  --- 1479 cbr 512 [0 0 0 0] ------- [8:1 10:0 32 0] [14] 0 2
s 92.215170021 _12_ AGT  --- 1480 cbr 512 [0 0 0 0] ------- [12:2 14:0 32 0] [13] 0 2
r 92.225903270 _10_ AGT  --- 1479 cbr 532 [13a a 1d 800] ------- [8:1 10:0 28 10] [14] 5 2
r 92.238272747 _14_ AGT  --- 1480 cbr 532 [13a e 2b 800] ------- [12:2 14:0 31 14] [13] 2 2
s 92.242539681 _2_ AGT  --- 1481 cbr 512 [0 0 0 0] ------- [2:1 3:1 32 0] [3] 0 3
r 92.278034438 _3_ AGT  --- 1481 cbr 532 [13a 3 12 800] ------- [2:1 3:1 27 3] [3] 6 3
s 92.833393059 _16_ AGT  --- 1482 cbr 512 [0 0 0 0] ------- [16:0 17:0 32 0] [16] 0 1
r 92.845314965 _17_ AGT  --- 1482 cbr 532 [13a 11 e 800] ------- [16:0 17:0 31 17] [16] 2 1
s 93.012226684 _19_ AGT  --- 1483 cbr 512 [0 0 0 0] ------- [19:1 20:1 32 0] [4] 0 3
s 93.976250536 _18_ AGT  --- 1485 cbr 512 [0 0 0 0] ------- [18:0 19:0 32 0] [2] 0 3
r 94.012165783 _19_ AGT  --- 1485 cbr 532 [13a 13 2d 800] ------- [18:0 19:0 27 19] [2] 6 3
s 94.555177084 _18_ AGT  --- 1486 cbr 512 [0 0 0 0] ------- [18:1 20:0 32 0] [17] 0 2
r 94.578805693 _20_ AGT  --- 1486 cbr 532 [13a 14 2a 800] ------- [18:1 20:0 29 20] [17] 4 2
s 95.114949801 _9_ AGT  --- 1492 cbr 512 [0 0 0 0] ------- [9:2 11:0 32 0] [18] 0 2
r 95.132945075 _11_ AGT  --- 1492 cbr 532 [13a b 11 800] ------- [9:2 11:0 30 11] [18] 3 2
D 95.243079718 _48_ IFQ  ARP 1239 cbr 552 [13a 30 30 800] ------- [13:2 14:1 31 39] [13] 1 3
D 95.249133037 _48_ IFQ  ARP 1281 cbr 552 [13a 30 30 800] ------- [13:2 14:1 31 39] [14] 1 3
r 95.286223904 _14_ AGT  --- 1305 cbr 552 [13a e 1d 800] ------- [13:2 14:1 28 14] [15] 5 3
r 95.310253371 _14_ AGT  --- 1445 cbr 552 [13a e 1d 800] ------- [13:2 14:1 28 14] [16] 5 3
r 95.330699519 _14_ AGT  --- 1474 cbr 552 [13a e 1d 800] ------- [13:2 14:1 28 14] [17] 5 3
s 95.371661043 _8_ AGT  --- 1506 cbr 512 [0 0 0 0] ------- [8:1 10:0 32 0] [15] 0 2
r 95.401143178 _10_ AGT  --- 1506 cbr 532 [13a a 1d 800] ------- [8:1 10:0 28 10] [15] 5 2
s 95.675680255 _19_ AGT  --- 1519 cbr 512 [0 0 0 0] ------- [19:1 20:1 32 0] [5] 0 3
D 95.675680255 _19_ RTR  IFQ 1248 cbr 532 [0 0 0 0] ------- [19:1 20:1 32 0] [0] 0 3
s 95.706495463 _13_ AGT  --- 1520 cbr 512 [0 0 0 0] ------- [13:2 14:1 32 0] [18] 0 3
r 95.736917005 _14_ AGT  --- 1520 cbr 532 [13a e 1d 800] ------- [13:2 14:1 28 14] [18] 5 3
s 95.764780249 _20_ AGT  --- 1521 cbr 512 [0 0 0 0] ------- [20:2 21:0 32 0] [3] 0 1
r 95.776442643 _21_ AGT  --- 1521 cbr 532 [13a 15 2a 800] ------- [20:2 21:0 31 21] [3] 2 1
s 97.432468573 _12_ AGT  --- 1589 cbr 512 [0 0 0 0] ------- [12:2 14:0 32 0] [14] 0 2
r 97.444011299 _14_ AGT  --- 1589 cbr 532 [13a e 2b 800] ------- [12:2 14:0 31 14] [14] 2 2
s 98.037921433 _16_ AGT  --- 1605 cbr 512 [0 0 0 0] ------- [16:0 17:0 32 0] [17] 0 1
s 98.048153555 _2_ AGT  --- 1608 cbr 512 [0 0 0 0] ------- [2:1 3:1 32 0] [4] 0 3
r 98.049863340 _17_ AGT  --- 1605 cbr 532 [13a 11 e 800] ------- [16:0 17:0 31 17] [17] 2 1
r 98.083328913 _3_ AGT  --- 1608 cbr 532 [13a 3 4 800] ------- [2:1 3:1 27 3] [4] 6 3
s 98.433751925 _18_ AGT  --- 1619 cbr 512 [0 0 0 0] ------- [18:1 20:0 32 0] [18] 0 2
r 98.457100237 _20_ AGT  --- 1619 cbr 532 [13a 14 18 800] ------- [18:1 20:0 29 20] [18] 4 2
s 99.269707558 _8_ AGT  --- 1631 cbr 512 [0 0 0 0] ------- [8:1 10:0 32 0] [16] 0 2
r 99.299969693 _10_ AGT  --- 1631 cbr 532 [13a a 1d 800] ------- [8:1 10:0 28 10] [16] 5 2
s 99.653199934 _18_ AGT  --- 1632 cbr 512 [0 0 0 0] ------- [18:0 19:0 32 0] [3] 0 3
r 99.688334567 _19_ AGT  --- 1632 cbr 532 [13a 13 2d 800] ------- [18:0 19:0 27 19] [3] 6 3
s 100.285247482 _9_ AGT  --- 1642 cbr 512 [0 0 0 0] ------- [9:2 11:0 32 0] [19] 0 2
r 100.303242756 _11_ AGT  --- 1642 cbr 532 [13a b 11 800] ------- [9:2 11:0 30 11] [19] 3 2
s 100.765458391 _19_ AGT  --- 1644 cbr 512 [0 0 0 0] ------- [19:1 20:1 32 0] [6] 0 3
D 100.765458391 _19_ RTR  IFQ 1283 cbr 532 [0 0 0 0] ------- [19:1 20:1 32 0] [1] 0 3
s 100.821476641 _20_ AGT  --- 1646 cbr 512 [0 0 0 0] ------- [20:2 21:0 32 0] [4] 0 1
r 100.841967915 _21_ AGT  --- 1646 cbr 532 [13a 15 2a 800] ------- [20:2 21:0 30 21] [4] 3 1
s 100.971779069 _16_ AGT  --- 1648 cbr 512 [0 0 0 0] ------- [16:0 17:0 32 0] [18] 0 1
r 100.983940976 _17_ AGT  --- 1648 cbr 532 [13a 11 e 800] ------- [16:0 17:0 31 17] [18] 2 1
s 101.159392060 _13_ AGT  --- 1649 cbr 512 [0 0 0 0] ------- [13:2 14:1 32 0] [19] 0 3
r 101.200960595 _14_ AGT  --- 1649 cbr 532 [13a e 22 800] ------- [13:2 14:1 27 14] [19] 6 3
s 101.378480025 _12_ AGT  --- 1652 cbr 512 [0 0 0 0] ------- [12:2 14:0 32 0] [15] 0 2
r 101.390042751 _14_ AGT  --- 1652 cbr 532 [13a e 2b 800] ------- [12:2 14:0 31 14] [15] 2 2
s 102.879731845 _18_ AGT  --- 1654 cbr 512 [0 0 0 0] ------- [18:0 19:0 32 0] [4] 0 3
r 102.916426479 _19_ AGT  --- 1654 cbr 532 [13a 13 2d 800] ------- [18:0 19:0 27 19] [4] 6 3
s 103.336553689 _18_ AGT  --- 1656 cbr 512 [0 0 0 0] ------- [18:1 20:0 32 0] [19] 0 2
r 103.363937827 _20_ AGT  --- 1656 cbr 532 [13a 14 5 800] ------- [18:1 20:0 29 20] [19] 4 2
s 103.948188736 _2_ AGT  --- 1657 cbr 512 [0 0 0 0] ------- [2:1 3:1 32 0] [5] 0 3
r 103.984064094 _3_ AGT  --- 1657 cbr 532 [13a 3 4 800] ------- [2:1 3:1 27 3] [5] 6 3
s 104.091943373 _19_ AGT  --- 1658 cbr 512 [0 0 0 0] ------- [19:1 20:1 32 0] [7] 0 3
D 104.091943373 _19_ RTR  IFQ 1346 cbr 532 [0 0 0 0] ------- [19:1 20:1 32 0] [2] 0 3
s 104.148044651 _20_ AGT  --- 1659 cbr 512 [0 0 0 0] ------- [20:2 21:0 32 0] [5] 0 1
r 104.166079557 _21_ AGT  --- 1659 cbr 532 [13a 15 2a 800] ------- [20:2 21:0 30 21] [5] 3 1
s 104.189893799 _9_ AGT  --- 1660 cbr 512 [0 0 0 0] ------- [9:2 11:0 32 0] [20] 0 2
r 104.207409073 _11_ AGT  --- 1660 cbr 532 [13a b 11 800] ------- [9:2 11:0 30 11] [20] 3 2
s 104.346586703 _13_ AGT  --- 1661 cbr 512 [0 0 0 0] ------- [13:2 14:1 32 0] [20] 0 3
r 104.381861736 _14_ AGT  --- 1661 cbr 532 [13a e 22 800] ------- [13:2 14:1 27 14] [20] 6 3
s 104.547464721 _8_ AGT  --- 1662 cbr 512 [0 0 0 0] ------- [8:1 10:0 32 0] [17] 0 2
r 104.577046856 _10_ AGT  --- 1662 cbr 532 [13a a 1d 800] ------- [8:1 10:0 28 10] [17] 5 2
s 105.321741285 _12_ AGT  --- 1663 cbr 512 [0 0 0 0] ------- [12:2 14:0 32 0] [16] 0 2
r 105.333424011 _14_ AGT  --- 1663 cbr 532 [13a e 2b 800] ------- [12:2 14:0 31 14] [16] 2 2
s 106.083234244 _12_ AGT  --- 1665 cbr 512 [0 0 0 0] ------- [12:1 13:1 32 0] [0] 0 2
r 106.120885304 _13_ AGT  --- 1665 cbr 532 [13a d 30 800] ------- [12:1 13:1 27 13] [0] 6 2
s 106.326340926 _16_ AGT  --- 1666 cbr 512 [0 0 0 0] ------- [16:0 17:0 32 0] [19] 0 1
r 106.338482832 _17_ AGT  --- 1666 cbr 532 [13a 11 e 800] ------- [16:0 17:0 31 17] [19] 2 1
s 106.569253835 _18_ AGT  --- 1668 cbr 512 [0 0 0 0] ------- [18:0 19:0 32 0] [5] 0 3
r 106.604448469 _19_ AGT  --- 1668 cbr 532 [13a 13 2d 800] ------- [18:0 19:0 27 19] [5] 6 3
s 106.612070809 _2_ AGT  --- 1669 cbr 512 [0 0 0 0] ------- [2:1 3:1 32 0] [6] 0 3
r 106.648386168 _3_ AGT  --- 1669 cbr 532 [13a 3 4 800] ------- [2:1 3:1 27 3] [6] 6 3
s 106.715367727 _8_ AGT  --- 1670 cbr 512 [0 0 0 0] ------- [8:1 10:0 32 0] [18] 0 2
r 106.750809862 _10_ AGT  --- 1670 cbr 532 [13a a 1d 800] ------- [8:1 10:0 28 10] [18] 5 2
s 106.758682476 _20_ AGT  --- 1672 cbr 512 [0 0 0 0] ------- [20:2 21:0 32 0] [6] 0 1
r 106.776417382 _21_ AGT  --- 1672 cbr 532 [13a 15 2a 800] ------- [20:2 21:0 30 21] [6] 3 1
s 106.957220251 _9_ AGT  --- 1674 cbr 512 [0 0 0 0] ------- [9:2 11:0 32 0] [21] 0 2
r 106.974895526 _11_ AGT  --- 1674 cbr 532 [13a b 11 800] ------- [9:2 11:0 30 11] [21] 3 2
s 108.037308441 _18_ AGT  --- 1704 cbr 512 [0 0 0 0] ------- [18:1 20:0 32 0] [20] 0 2
r 108.060656269 _20_ AGT  --- 1704 cbr 532 [13a 14 5 800] ------- [18:1 20:0 29 20] [20] 4 2
s 108.379695579 _19_ AGT  --- 1722 cbr 512 [0 0 0 0] ------- [19:1 20:1 32 0] [8] 0 3
D 108.379695579 _19_ RTR  IFQ 1471 cbr 532 [0 0 0 0] ------- [19:1 20:1 32 0] [3] 0 3
s 108.888171887 _12_ AGT  --- 1736 cbr 512 [0 0 0 0] ------- [12:1 13:1 32 0] [1] 0 2
r 108.930140249 _13_ AGT  --- 1736 cbr 532 [13a d 30 800] ------- [12:1 13:1 27 13] [1] 6 2
s 109.086479304 _12_ AGT  --- 1737 cbr 512 [0 0 0 0] ------- [12:2 14:0 32 0] [17] 0 2
r 109.097942030 _14_ AGT  --- 1737 cbr 532 [13a e 2b 800] ------- [12:2 14:0 31 14] [17] 2 2
s 109.334220800 _18_ AGT  --- 1741 cbr 512 [0 0 0 0] ------- [18:0 19:0 32 0] [6] 0 3
r 109.370315434 _19_ AGT  --- 1741 cbr 532 [13a 13 2d 800] ------- [18:0 19:0 27 19] [6] 6 3
s 109.920700998 _13_ AGT  --- 1765 cbr 512 [0 0 0 0] ------- [13:2 14:1 32 0] [21] 0 3
r 109.950462540 _14_ AGT  --- 1765 cbr 532 [13a e 1d 800] ------- [13:2 14:1 28 14] [21] 5 3
s 110.052417605 _11_ AGT  --- 1773 cbr 512 [0 0 0 0] ------- [11:3 13:0 32 0] [0] 0 3
r 110.096762720 _13_ AGT  --- 1773 cbr 532 [13a d 30 800] ------- [11:3 13:0 26 13] [0] 7 3
s 110.152685163 _2_ AGT  --- 1774 cbr 512 [0 0 0 0] ------- [2:1 3:1 32 0] [7] 0 3
r 110.188839919 _3_ AGT  --- 1774 cbr 532 [13a 3 12 800] ------- [2:1 3:1 27 3] [7] 6 3
s 110.907196425 _16_ AGT  --- 1789 cbr 512 [0 0 0 0] ------- [16:0 17:0 32 0] [20] 0 1
r 110.918978771 _17_ AGT  --- 1789 cbr 532 [13a 11 22 800] ------- [16:0 17:0 31 17] [20] 2 1
s 111.361093674 _8_ AGT  --- 1798 cbr 512 [0 0 0 0] ------- [8:1 10:0 32 0] [19] 0 2
s 111.363576140 _20_ AGT  --- 1799 cbr 512 [0 0 0 0] ------- [20:2 21:0 32 0] [7] 0 1
r 111.390875555 _10_ AGT  --- 1798 cbr 532 [13a a 16 800] ------- [8:1 10:0 28 10] [19] 5 2
r 111.390938534 _21_ AGT  --- 1799 cbr 532 [13a 15 2a 800] ------- [20:2 21:0 31 21] [7] 2 1
s 111.468930853 _18_ AGT  --- 1800 cbr 512 [0 0 0 0] ------- [18:1 20:0 32 0] [21] 0 2
r 111.492579462 _20_ AGT  --- 1800 cbr 532 [13a 14 2a 800] ------- [18:1 20:0 29 20] [21] 4 2
s 112.023352627 _13_ AGT  --- 1801 cbr 512 [0 0 0 0] ------- [13:2 14:1 32 0] [22] 0 3
r 112.053834169 _14_ AGT  --- 1801 cbr 532 [13a e 1d 800] ------- [13:2 14:1 28 14] [22] 5 3
s 112.490583592 _9_ AGT  --- 1807 cbr 512 [0 0 0 0] ------- [9:2 11:0 32 0] [22] 0 2
s 112.497177402 _18_ AGT  --- 1808 cbr 512 [0 0 0 0] ------- [18:0 19:0 32 0] [7] 0 3
r 112.508818867 _11_ AGT  --- 1807 cbr 532 [13a b 11 800] ------- [9:2 11:0 30 11] [22] 3 2
r 112.533052035 _19_ AGT  --- 1808 cbr 532 [13a 13 2d 800] ------- [18:0 19:0 27 19] [7] 6 3
s 112.691101952 _19_ AGT  --- 1809 cbr 512 [0 0 0 0] ------- [19:1 20:1 32 0] [9] 0 3
D 112.691101952 _19_ RTR  IFQ 1483 cbr 532 [0 0 0 0] ------- [19:1 20:1 32 0] [4] 0 3
s 113.559743820 _2_ AGT  --- 1813 cbr 512 [0 0 0 0] ------- [2:1 3:1 32 0] [8] 0 3
r 113.595478576 _3_ AGT  --- 1813 cbr 532 [13a 3 12 800] ------- [2:1 3:1 27 3] [8] 6 3
s 113.718215662 _11_ AGT  --- 1814 cbr 512 [0 0 0 0] ------- [11:3 13:0 32 0] [1] 0 3
r 113.760383879 _13_ AGT  --- 1814 cbr 532 [13a d 30 800] ------- [11:3 13:0 26 13] [1] 7 3
s 114.223243551 _12_ AGT  --- 1815 cbr 512 [0 0 0 0] ------- [12:2 14:0 32 0] [18] 0 2
r 114.235226277 _14_ AGT  --- 1815 cbr 532 [13a e 2b 800] ------- [12:2 14:0 31 14] [18] 2 2
s 114.661979239 _18_ AGT  --- 1816 cbr 512 [0 0 0 0] ------- [18:1 20:0 32 0] [22] 0 2
s 114.684535894 _12_ AGT  --- 1818 cbr 512 [0 0 0 0] ------- [12:1 13:1 32 0] [2] 0 2
r 114.686507848 _20_ AGT  --- 1816 cbr 532 [13a 14 2a 800] ------- [18:1 20:0 29 20] [22] 4 2
r 114.720290781 _13_ AGT  --- 1818 cbr 532 [13a d 30 800] ------- [12:1 13:1 27 13] [2] 6 2
s 115.183436931 _16_ AGT  --- 1819 cbr 512 [0 0 0 0] ------- [16:0 17:0 32 0] [21] 0 1
r 115.195139277 _17_ AGT  --- 1819 cbr 532 [13a 11 22 800] ------- [16:0 17:0 31 17] [21] 2 1
s 115.354494934 _13_ AGT  --- 1820 cbr 512 [0 0 0 0] ------- [13:2 14:1 32 0] [23] 0 3
r 115.384556476 _14_ AGT  --- 1820 cbr 532 [13a e 1d 800] ------- [13:2 14:1 28 14] [23] 5 3
s 116.156734599 _11_ AGT  --- 1822 cbr 512 [0 0 0 0] ------- [11:3 13:0 32 0] [2] 0 3
s 116.186923667 _9_ AGT  --- 1823 cbr 512 [0 0 0 0] ------- [9:2 11:0 32 0] [23] 0 2
r 116.198742816 _13_ AGT  --- 1822 cbr 532 [13a d 30 800] ------- [11:3 13:0 26 13] [2] 7 3
r 116.204558942 _11_ AGT  --- 1823 cbr 532 [13a b 11 800] ------- [9:2 11:0 30 11] [23] 3 2