M 0.0 nn:50 x:670 y:670 rp:dsdv
M 0.0 sc:../mobility/scene/scen-670x670-50-600-20-0 cp:../mobility/scene/cbr-50-20-4-512 seed:0.0
M 0.0 prop:Propagation/TwoRayGround ant:Antenna/OmniAntenna
s 22.465028699 _18_ AGT  --- 229 cbr 512 [0 0 0 0] ------- [18:1 20:0 32 0] [0] 0 2
s 23.789830405 _16_ AGT  --- 230 cbr 512 [0 0 0 0] ------- [16:0 17:0 32 0] [0] 0 1
r 23.807897879 _17_ AGT  --- 230 cbr 532 [14a 11 22 800] ------- [16:0 17:0 31 17] [0] 2 1
s 27.562167430 _16_ AGT  --- 401 cbr 512 [0 0 0 0] ------- [16:0 17:0 32 0] [1] 0 1
r 27.575088192 _17_ AGT  --- 401 cbr 532 [14a 11 22 800] ------- [16:0 17:0 31 17] [1] 2 1
s 27.832222972 _18_ AGT  --- 405 cbr 512 [0 0 0 0] ------- [18:1 20:0 32 0] [1] 0 2
s 29.031284241 _9_ AGT  --- 412 cbr 512 [0 0 0 0] ------- [9:2 11:0 32 0] [0] 0 2
r 29.058444927 _11_ AGT  --- 412 cbr 532 [14a b 11 800] ------- [9:2 11:0 30 11] [0] 3 2
s 30.208176370 _13_ AGT  --- 415 cbr 512 [0 0 0 0] ------- [13:2 14:1 32 0] [0] 0 3
s 30.586201677 _16_ AGT  --- 417 cbr 512 [0 0 0 0] ------- [16:0 17:0 32 0] [2] 0 1
r 30.598476023 _17_ AGT  --- 417 cbr 532 [14a 11 22 800] ------- [16:0 17:0 31 17] [2] 2 1
s 31.667426077 _9_ AGT  --- 418 cbr 512 [0 0 0 0] ------- [9:2 11:0 32 0] [1] 0 2
r 31.685797371 _11_ AGT  --- 418 cbr 532 [14a b 11 800] ------- [9:2 11:0 30 11] [1] 3 2
s 32.138173525 _18_ AGT  --- 419 cbr 512 [0 0 0 0] ------- [18:1 20:0 32 0] [2] 0 2
s 32.500874033 _13_ AGT  --- 420 cbr 512 [0 0 0 0] ------- [13:2 14:1 32 0] [1] 0 3
s 33.221376566 _16_ AGT  --- 421 cbr 512 [0 0 0 0] ------- [16:0 17:0 32 0] [3] 0 1
r 33.233150912 _17_ AGT  --- 421 cbr 532 [14a 11 22 800] ------- [16:0 17:0 31 17] [3] 2 1
s 34.356553204 _9_ AGT  --- 422 cbr 512 [0 0 0 0] ------- [9:2 11:0 32 0] [2] 0 2
r 34.374444498 _11_ AGT  --- 422 cbr 532 [14a b 11 800] ------- [9:2 11:0 30 11] [2] 3 2
s 35.392564973 _18_ AGT  --- 423 cbr 512 [0 0 0 0] ------- [18:1 20:0 32 0] [3] 0 2
s 36.931081271 _13_ AGT  --- 479 cbr 512 [0 0 0 0] ------- [13:2 14:1 32 0] [2] 0 3
s 37.914219345 _16_ AGT  --- 533 cbr 512 [0 0 0 0] ------- [16:0 17:0 32 0] [4] 0 1
r 37.928909330 _17_ AGT  --- 533 cbr 532 [14a 11 e 800] ------- [16:0 17:0 31 17] [4] 2 1
s 37.953153224 _8_ AGT  --- 535 cbr 512 [0 0 0 0] ------- [8:1 10:0 32 0] [0] 0 2
s 38.244775162 _9_ AGT  --- 573 cbr 512 [0 0 0 0] ------- [9:2 11:0 32 0] [3] 0 2
r 38.268943217 _11_ AGT  --- 573 cbr 532 [14a b 11 800] ------- [9:2 11:0 29 11] [3] 4 2
s 40.072473382 _18_ AGT  --- 625 cbr 512 [0 0 0 0] ------- [18:1 20:0 32 0] [4] 0 2
s 40.917940000 _12_ AGT  --- 630 cbr 512 [0 0 0 0] ------- [12:2 14:0 32 0] [0] 0 2
r 40.936228362 _14_ AGT  --- 630 cbr 532 [14a e 2b 800] ------- [12:2 14:0 31 14] [0] 2 2
s 41.588411652 _8_ AGT  --- 632 cbr 512 [0 0 0 0] ------- [8:1 10:0 32 0] [1] 0 2
s 42.472887603 _13_ AGT  --- 633 cbr 512 [0 0 0 0] ------- [13:2 14:1 32 0] [3] 0 3
s 42.629500735 _9_ AGT  --- 634 cbr 512 [0 0 0 0] ------- [9:2 11:0 32 0] [4] 0 2
r 42.653288790 _11_ AGT  --- 634 cbr 532 [14a b 11 800] ------- [9:2 11:0 29 11] [4] 4 2
s 42.716217457 _16_ AGT  --- 635 cbr 512 [0 0 0 0] ------- [16:0 17:0 32 0] [5] 0 1
r 42.728391364 _17_ AGT  --- 635 cbr 532 [14a 11 e 800] ------- [16:0 17:0 31 17] [5] 2 1
s 44.653564527 _18_ AGT  --- 636 cbr 512 [0 0 0 0] ------- [18:1 20:0 32 0] [5] 0 2
D 44.653564527 _18_ RTR  IFQ 229 cbr 532 [0 0 0 0] ------- [18:1 20:0 32 0] [0] 0 2
s 45.234475599 _9_ AGT  --- 637 cbr 512 [0 0 0 0] ------- [9:2 11:0 32 0] [5] 0 2
r 45.258443654 _11_ AGT  --- 637 cbr 532 [14a b 11 800] ------- [9:2 11:0 29 11] [5] 4 2
s 45.397076982 _8_ AGT  --- 638 cbr 512 [0 0 0 0] ------- [8:1 10:0 32 0] [2] 0 2
s 46.064776063 _16_ AGT  --- 639 cbr 512 [0 0 0 0] ------- [16:0 17:0 32 0] [6] 0 1
r 46.076229970 _17_ AGT  --- 639 cbr 532 [14a 11 e 800] ------- [16:0 17:0 31 17] [6] 2 1
s 46.078744633 _12_ AGT  --- 640 cbr 512 [0 0 0 0] ------- [12:2 14:0 32 0] [1] 0 2
r 46.090779359 _14_ AGT  --- 640 cbr 532 [14a e 2b 800] ------- [12:2 14:0 31 14] [1] 2 2
s 47.747726565 _13_ AGT  --- 643 cbr 512 [0 0 0 0] ------- [13:2 14:1 32 0] [4] 0 3
D 47.794593989 _18_ IFQ  ARP 405 cbr 552 [0 0 12 800] ------- [18:1 20:0 32 48] [1] 0 2
D 47.794593989 _18_ IFQ  ARP 419 cbr 552 [0 0 12 800] ------- [18:1 20:0 32 48] [2] 0 2
D 47.794593989 _18_ RTR  CBK 423 cbr 552 [0 0 12 800] ------- [18:1 20:0 32 48] [3] 0 2
D 47.794593989 _18_ RTR  CBK 625 cbr 552 [0 0 12 800] ------- [18:1 20:0 32 48] [4] 0 2
r 47.830854869 _20_ AGT  --- 636 cbr 552 [14a 14 2a 800] ------- [18:1 20:0 30 20] [5] 3 2
s 47.959155580 _9_ AGT  --- 647 cbr 512 [0 0 0 0] ------- [9:2 11:0 32 0] [6] 0 2
r 47.983723635 _11_ AGT  --- 647 cbr 532 [14a b 11 800] ------- [9:2 11:0 29 11] [6] 4 2
s 48.931068614 _16_ AGT  --- 693 cbr 512 [0 0 0 0] ------- [16:0 17:0 32 0] [7] 0 1
r 48.943042521 _17_ AGT  --- 693 cbr 532 [14a 11 e 800] ------- [16:0 17:0 31 17] [7] 2 1
s 49.182964009 _8_ AGT  --- 741 cbr 512 [0 0 0 0] ------- [8:1 10:0 32 0] [3] 0 2
s 49.318849488 _18_ AGT  --- 743 cbr 512 [0 0 0 0] ------- [18:1 20:0 32 0] [6] 0 2
r 49.336681016 _20_ AGT  --- 743 cbr 532 [14a 14 2a 800] ------- [18:1 20:0 30 20] [6] 3 2
s 50.728510732 _12_ AGT  --- 794 cbr 512 [0 0 0 0] ------- [12:2 14:0 32 0] [2] 0 2
r 50.740685459 _14_ AGT  --- 794 cbr 532 [14a e 2b 800] ------- [12:2 14:0 31 14] [2] 2 2
s 51.756802703 _9_ AGT  --- 824 cbr 512 [0 0 0 0] ------- [9:2 11:0 32 0] [7] 0 2
r 51.780890623 _11_ AGT  --- 824 cbr 532 [14a b 11 800] ------- [9:2 11:0 29 11] [7] 4 2
s 52.207397054 _13_ AGT  --- 841 cbr 512 [0 0 0 0] ------- [13:2 14:1 32 0] [5] 0 3
D 52.207397054 _13_ RTR  IFQ 415 cbr 532 [0 0 0 0] ------- [13:2 14:1 32 0] [0] 0 3
s 52.892658449 _18_ AGT  --- 844 cbr 512 [0 0 0 0] ------- [18:1 20:0 32 0] [7] 0 2
r 52.910769977 _20_ AGT  --- 844 cbr 532 [14a 14 2a 800] ------- [18:1 20:0 30 20] [7] 3 2
s 53.128225079 _8_ AGT  --- 846 cbr 512 [0 0 0 0] ------- [8:1 10:0 32 0] [4] 0 2
s 54.333897895 _13_ AGT  --- 848 cbr 512 [0 0 0 0] ------- [13:2 14:1 32 0] [6] 0 3
D 54.333897895 _13_ RTR  IFQ 420 cbr 532 [0 0 0 0] ------- [13:2 14:1 32 0] [1] 0 3
s 54.385862932 _9_ AGT  --- 849 cbr 512 [0 0 0 0] ------- [9:2 11:0 32 0] [8] 0 2
r 54.409590852 _11_ AGT  --- 849 cbr 532 [14a b 11 800] ------- [9:2 11:0 29 11] [8] 4 2
s 54.833257407 _16_ AGT  --- 850 cbr 512 [0 0 0 0] ------- [16:0 17:0 32 0] [8] 0 1
r 54.845171313 _17_ AGT  --- 850 cbr 532 [14a 11 e 800] ------- [16:0 17:0 31 17] [8] 2 1
s 55.137410250 _12_ AGT  --- 851 cbr 512 [0 0 0 0] ------- [12:2 14:0 32 0] [3] 0 2
r 55.149064977 _14_ AGT  --- 851 cbr 532 [14a e 2b 800] ------- [12:2 14:0 31 14] [3] 2 2
s 57.139096038 _13_ AGT  --- 852 cbr 512 [0 0 0 0] ------- [13:2 14:1 32 0] [7] 0 3
D 57.139096038 _13_ RTR  IFQ 479 cbr 532 [0 0 0 0] ------- [13:2 14:1 32 0] [2] 0 3
s 57.934456967 _18_ AGT  --- 853 cbr 512 [0 0 0 0] ------- [18:1 20:0 32 0] [8] 0 2
r 57.952648495 _20_ AGT  --- 853 cbr 532 [14a 14 2a 800] ------- [18:1 20:0 30 20] [8] 3 2
s 58.103959650 _8_ AGT  --- 854 cbr 512 [0 0 0 0] ------- [8:1 10:0 32 0] [5] 0 2
D 58.103959650 _8_ RTR  IFQ 535 cbr 532 [0 0 0 0] ------- [8:1 10:0 32 0] [0] 0 2
s 58.274949008 _9_ AGT  --- 855 cbr 512 [0 0 0 0] ------- [9:2 11:0 32 0] [9] 0 2
r 58.299076927 _11_ AGT  --- 855 cbr 532 [14a b 11 800] ------- [9:2 11:0 29 11] [9] 4 2
s 60.128596280 _16_ AGT  --- 897 cbr 512 [0 0 0 0] ------- [16:0 17:0 32 0] [9] 0 1
r 60.140390187 _17_ AGT  --- 897 cbr 532 [14a 11 e 800] ------- [16:0 17:0 31 17] [9] 2 1
s 60.654367863 _12_ AGT  --- 910 cbr 512 [0 0 0 0] ------- [12:2 14:0 32 0] [4] 0 2
r 60.666642589 _14_ AGT  --- 910 cbr 532 [14a e 2b 800] ------- [12:2 14:0 31 14] [4] 2 2
s 61.029993547 _13_ AGT  --- 937 cbr 512 [0 0 0 0] ------- [13:2 14:1 32 0] [8] 0 3
D 61.029993547 _13_ RTR  IFQ 633 cbr 532 [0 0 0 0] ------- [13:2 14:1 32 0] [3] 0 3
s 62.247482451 _8_ AGT  --- 991 cbr 512 [0 0 0 0] ------- [8:1 10:0 32 0] [6] 0 2
D 62.247482451 _8_ RTR  IFQ 632 cbr 532 [0 0 0 0] ------- [8:1 10:0 32 0] [1] 0 2
s 62.468732401 _9_ AGT  --- 998 cbr 512 [0 0 0 0] ------- [9:2 11:0 32 0] [10] 0 2
r 62.493140320 _11_ AGT  --- 998 cbr 532 [14a b 11 800] ------- [9:2 11:0 29 11] [10] 4 2
s 62.762471257 _18_ AGT  --- 1001 cbr 512 [0 0 0 0] ------- [18:1 20:0 32 0] [9] 0 2
r 62.780442785 _20_ AGT  --- 1001 cbr 532 [14a 14 2a 800] ------- [18:1 20:0 30 20] [9] 3 2
s 64.069273108 _13_ AGT  --- 1049 cbr 512 [0 0 0 0] ------- [13:2 14:1 32 0] [9] 0 3
D 64.069273108 _13_ RTR  IFQ 643 cbr 532 [0 0 0 0] ------- [13:2 14:1 32 0] [4] 0 3
s 64.254074026 _8_ AGT  --- 1054 cbr 512 [0 0 0 0] ------- [8:1 10:0 32 0] [7] 0 2
D 64.254074026 _8_ RTR  IFQ 638 cbr 532 [0 0 0 0] ------- [8:1 10:0 32 0] [2] 0 2
s 65.400445941 _16_ AGT  --- 1056 cbr 512 [0 0 0 0] ------- [16:0 17:0 32 0] [10] 0 1
r 65.412359847 _17_ AGT  --- 1056 cbr 532 [14a 11 e 800] ------- [16:0 17:0 31 17] [10] 2 1
s 65.737767940 _18_ AGT  --- 1057 cbr 512 [0 0 0 0] ------- [18:1 20:0 32 0] [10] 0 2
r 65.756099468 _20_ AGT  --- 1057 cbr 532 [14a 14 2a 800] ------- [18:1 20:0 30 20] [10] 3 2
s 66.389655251 _12_ AGT  --- 1058 cbr 512 [0 0 0 0] ------- [12:2 14:0 32 0] [5] 0 2
r 66.401669977 _14_ AGT  --- 1058 cbr 532 [14a e 2b 800] ------- [12:2 14:0 31 14] [5] 2 2
s 67.374268610 _9_ AGT  --- 1059 cbr 512 [0 0 0 0] ------- [9:2 11:0 32 0] [11] 0 2
r 67.398056530 _11_ AGT  --- 1059 cbr 532 [14a b 11 800] ------- [9:2 11:0 29 11] [11] 4 2
s 68.454453755 _18_ AGT  --- 1060 cbr 512 [0 0 0 0] ------- [18:1 20:0 32 0] [11] 0 2
r 68.472945283 _20_ AGT  --- 1060 cbr 532 [14a 14 2a 800] ------- [18:1 20:0 30 20] [11] 3 2
s 69.043303939 _13_ AGT  --- 1061 cbr 512 [0 0 0 0] ------- [13:2 14:1 32 0] [10] 0 3
D 69.043303939 _13_ RTR  IFQ 841 cbr 532 [0 0 0 0] ------- [13:2 14:1 32 0] [5] 0 3
s 69.213678853 _12_ AGT  --- 1062 cbr 512 [0 0 0 0] ------- [12:2 14:0 32 0] [6] 0 2
r 69.225213579 _14_ AGT  --- 1062 cbr 532 [14a e 2b 800] ------- [12:2 14:0 31 14] [6] 2 2
s 69.340782002 _8_ AGT  --- 1063 cbr 512 [0 0 0 0] ------- [8:1 10:0 32 0] [8] 0 2
D 69.340782002 _8_ RTR  IFQ 741 cbr 532 [0 0 0 0] ------- [8:1 10:0 32 0] [3] 0 2
s 70.330896182 _16_ AGT  --- 1064 cbr 512 [0 0 0 0] ------- [16:0 17:0 32 0] [11] 0 1
r 70.342510088 _17_ AGT  --- 1064 cbr 532 [14a 11 e 800] ------- [16:0 17:0 31 17] [11] 2 1
s 71.162791586 _9_ AGT  --- 1067 cbr 512 [0 0 0 0] ------- [9:2 11:0 32 0] [12] 0 2
r 71.183439380 _11_ AGT  --- 1067 cbr 532 [14a b 11 800] ------- [9:2 11:0 30 11] [12] 3 2
s 72.739624595 _13_ AGT  --- 1123 cbr 512 [0 0 0 0] ------- [13:2 14:1 32 0] [11] 0 3
D 72.739624595 _13_ RTR  IFQ 848 cbr 532 [0 0 0 0] ------- [13:2 14:1 32 0] [6] 0 3
s 73.073510347 _18_ AGT  --- 1151 cbr 512 [0 0 0 0] ------- [18:1 20:0 32 0] [12] 0 2
r 73.091321875 _20_ AGT  --- 1151 cbr 532 [14a 14 2a 800] ------- [18:1 20:0 30 20] [12] 3 2
s 73.900395349 _9_ AGT  --- 1184 cbr 512 [0 0 0 0] ------- [9:2 11:0 32 0] [13] 0 2
r 73.919856624 _11_ AGT  --- 1184 cbr 532 [14a b 11 800] ------- [9:2 11:0 30 11] [13] 3 2
s 74.462449130 _12_ AGT  --- 1212 cbr 512 [0 0 0 0] ------- [12:2 14:0 32 0] [7] 0 2
r 74.474243857 _14_ AGT  --- 1212 cbr 532 [14a e 2b 800] ------- [12:2 14:0 31 14] [7] 2 2
s 74.529227605 _8_ AGT  --- 1213 cbr 512 [0 0 0 0] ------- [8:1 10:0 32 0] [9] 0 2
D 74.529227605 _8_ RTR  IFQ 846 cbr 532 [0 0 0 0] ------- [8:1 10:0 32 0] [4] 0 2
s 75.319032575 _16_ AGT  --- 1238 cbr 512 [0 0 0 0] ------- [16:0 17:0 32 0] [12] 0 1
r 75.330486482 _17_ AGT  --- 1238 cbr 532 [14a 11 e 800] ------- [16:0 17:0 31 17] [12] 2 1
s 75.477956243 _19_ AGT  --- 1242 cbr 512 [0 0 0 0] ------- [19:1 20:1 32 0] [0] 0 3
s 75.551828486 _18_ AGT  --- 1243 cbr 512 [0 0 0 0] ------- [18:1 20:0 32 0] [13] 0 2
r 75.570958866 _20_ AGT  --- 1243 cbr 532 [14a 14 2a 800] ------- [18:1 20:0 30 20] [13] 3 2
s 77.232946815 _13_ AGT  --- 1265 cbr 512 [0 0 0 0] ------- [13:2 14:1 32 0] [12] 0 3
D 77.232946815 _13_ RTR  IFQ 852 cbr 532 [0 0 0 0] ------- [13:2 14:1 32 0] [7] 0 3
s 78.527112214 _9_ AGT  --- 1266 cbr 512 [0 0 0 0] ------- [9:2 11:0 32 0] [14] 0 2
r 78.545043489 _11_ AGT  --- 1266 cbr 532 [14a b 11 800] ------- [9:2 11:0 30 11] [14] 3 2
s 78.721669828 _8_ AGT  --- 1267 cbr 512 [0 0 0 0] ------- [8:1 10:0 32 0] [10] 0 2
D 78.721669828 _8_ RTR  IFQ 854 cbr 532 [0 0 0 0] ------- [8:1 10:0 32 0] [5] 0 2
s 78.820789726 _12_ AGT  --- 1268 cbr 512 [0 0 0 0] ------- [12:2 14:0 32 0] [8] 0 2
r 78.832764452 _14_ AGT  --- 1268 cbr 532 [14a e 2b 800] ------- [12:2 14:0 31 14] [8] 2 2
s 79.091456904 _16_ AGT  --- 1269 cbr 512 [0 0 0 0] ------- [16:0 17:0 32 0] [13] 0 1
r 79.103310810 _17_ AGT  --- 1269 cbr 532 [14a 11 e 800] ------- [16:0 17:0 31 17] [13] 2 1
s 79.371595438 _2_ AGT  --- 1270 cbr 512 [0 0 0 0] ------- [2:1 3:1 32 0] [0] 0 3
r 79.420165100 _3_ AGT  --- 1270 cbr 532 [14a 3 4 800] ------- [2:1 3:1 27 3] [0] 6 3
s 79.589597157 _18_ AGT  --- 1271 cbr 512 [0 0 0 0] ------- [18:1 20:0 32 0] [14] 0 2
r 79.607408685 _20_ AGT  --- 1271 cbr 532 [14a 14 2a 800] ------- [18:1 20:0 30 20] [14] 3 2
s 81.027347049 _9_ AGT  --- 1273 cbr 512 [0 0 0 0] ------- [9:2 11:0 32 0] [15] 0 2
r 81.045278323 _11_ AGT  --- 1273 cbr 532 [14a b 11 800] ------- [9:2 11:0 30 11] [15] 3 2
s 81.227660386 _19_ AGT  --- 1274 cbr 512 [0 0 0 0] ------- [19:1 20:1 32 0] [1] 0 3
s 81.561773046 _2_ AGT  --- 1275 cbr 512 [0 0 0 0] ------- [2:1 3:1 32 0] [1] 0 3
r 81.598556412 _3_ AGT  --- 1275 cbr 532 [14a 3 4 800] ------- [2:1 3:1 27 3] [1] 6 3
s 81.884545873 _18_ AGT  --- 1276 cbr 512 [0 0 0 0] ------- [18:1 20:0 32 0] [15] 0 2
r 81.902537401 _20_ AGT  --- 1276 cbr 532 [14a 14 2a 800] ------- [18:1 20:0 30 20] [15] 3 2
s 81.973795676 _13_ AGT  --- 1277 cbr 512 [0 0 0 0] ------- [13:2 14:1 32 0] [13] 0 3
D 81.973795676 _13_ RTR  IFQ 937 cbr 532 [0 0 0 0] ------- [13:2 14:1 32 0] [8] 0 3
s 82.200762745 _16_ AGT  --- 1278 cbr 512 [0 0 0 0] ------- [16:0 17:0 32 0] [14] 0 1
r 82.212676652 _17_ AGT  --- 1278 cbr 532 [14a 11 e 800] ------- [16:0 17:0 31 17] [14] 2 1
s 83.358260958 _8_ AGT  --- 1283 cbr 512 [0 0 0 0] ------- [8:1 10:0 32 0] [11] 0 2
D 83.358260958 _8_ RTR  IFQ 991 cbr 532 [0 0 0 0] ------- [8:1 10:0 32 0] [6] 0 2
s 83.602217233 _18_ AGT  --- 1295 cbr 512 [0 0 0 0] ------- [18:0 19:0 32 0] [0] 0 3
s 83.644134711 _20_ AGT  --- 1296 cbr 512 [0 0 0 0] ------- [20:2 21:0 32 0] [0] 0 1
r 83.651286673 _19_ AGT  --- 1295 cbr 532 [14a 13 2d 800] ------- [18:0 19:0 27 19] [0] 6 3
r 83.658865847 _21_ AGT  --- 1296 cbr 532 [14a 15 2a 800] ------- [20:2 21:0 31 21] [0] 2 1
s 84.479398357 _12_ AGT  --- 1330 cbr 512 [0 0 0 0] ------- [12:2 14:0 32 0] [9] 0 2
r 84.491373084 _14_ AGT  --- 1330 cbr 532 [14a e 2b 800] ------- [12:2 14:0 31 14] [9] 2 2
s 84.724600798 _13_ AGT  --- 1335 cbr 512 [0 0 0 0] ------- [13:2 14:1 32 0] [14] 0 3
D 84.724600798 _13_ RTR  IFQ 1049 cbr 532 [0 0 0 0] ------- [13:2 14:1 32 0] [9] 0 3
s 85.273323114 _9_ AGT  --- 1365 cbr 512 [0 0 0 0] ------- [9:2 11:0 32 0] [16] 0 2
r 85.291134389 _11_ AGT  --- 1365 cbr 532 [14a b 11 800] ------- [9:2 11:0 30 11] [16] 3 2
s 85.906346160 _8_ AGT  --- 1398 cbr 512 [0 0 0 0] ------- [8:1 10:0 32 0] [12] 0 2
D 85.906346160 _8_ RTR  IFQ 1054 cbr 532 [0 0 0 0] ------- [8:1 10:0 32 0] [7] 0 2
s 86.146032913 _2_ AGT  --- 1418 cbr 512 [0 0 0 0] ------- [2:1 3:1 32 0] [2] 0 3
r 86.182276278 _3_ AGT  --- 1418 cbr 532 [14a 3 4 800] ------- [2:1 3:1 27 3] [2] 6 3
s 86.188116329 _18_ AGT  --- 1419 cbr 512 [0 0 0 0] ------- [18:0 19:0 32 0] [1] 0 3
r 86.224178963 _19_ AGT  --- 1419 cbr 532 [14a 13 2d 800] ------- [18:0 19:0 27 19] [1] 6 3
s 86.524705054 _18_ AGT  --- 1433 cbr 512 [0 0 0 0] ------- [18:1 20:0 32 0] [16] 0 2
r 86.542816582 _20_ AGT  --- 1433 cbr 532 [14a 14 2a 800] ------- [18:1 20:0 30 20] [16] 3 2
s 86.586365244 _19_ AGT  --- 1435 cbr 512 [0 0 0 0] ------- [19:1 20:1 32 0] [2] 0 3
s 86.636255779 _16_ AGT  --- 1436 cbr 512 [0 0 0 0] ------- [16:0 17:0 32 0] [15] 0 1
r 86.648349686 _17_ AGT  --- 1436 cbr 532 [14a 11 e 800] ------- [16:0 17:0 31 17] [15] 2 1
s 87.265726044 _12_ AGT  --- 1448 cbr 512 [0 0 0 0] ------- [12:2 14:0 32 0] [10] 0 2
r 87.277680771 _14_ AGT  --- 1448 cbr 532 [14a e 2b 800] ------- [12:2 14:0 31 14] [10] 2 2
s 88.480367903 _20_ AGT  --- 1467 cbr 512 [0 0 0 0] ------- [20:2 21:0 32 0] [1] 0 1
r 88.492482297 _21_ AGT  --- 1467 cbr 532 [14a 15 2a 800] ------- [20:2 21:0 31 21] [1] 2 1
s 89.405872121 _19_ AGT  --- 1469 cbr 512 [0 0 0 0] ------- [19:1 20:1 32 0] [3] 0 3
s 89.634142850 _8_ AGT  --- 1470 cbr 512 [0 0 0 0] ------- [8:1 10:0 32 0] [13] 0 2
D 89.634142850 _8_ RTR  IFQ 1063 cbr 532 [0 0 0 0] ------- [8:1 10:0 32 0] [8] 0 2
s 89.764687824 _13_ AGT  --- 1471 cbr 512 [0 0 0 0] ------- [13:2 14:1 32 0] [15] 0 3
D 89.764687824 _13_ RTR  IFQ 1061 cbr 532 [0 0 0 0] ------- [13:2 14:1 32 0] [10] 0 3
s 90.231003049 _2_ AGT  --- 1473 cbr 512 [0 0 0 0] ------- [2:1 3:1 32 0] [3] 0 3
r 90.266846415 _3_ AGT  --- 1473 cbr 532 [14a 3 4 800] ------- [2:1 3:1 27 3] [3] 6 3
s 90.544498815 _18_ AGT  --- 1474 cbr 512 [0 0 0 0] ------- [18:1 20:0 32 0] [17] 0 2
r 90.562970343 _20_ AGT  --- 1474 cbr 532 [14a 14 2a 800] ------- [18:1 20:0 30 20] [17] 3 2
s 90.892402895 _9_ AGT  --- 1475 cbr 512 [0 0 0 0] ------- [9:2 11:0 32 0] [17] 0 2
r 90.910114169 _11_ AGT  --- 1475 cbr 532 [14a b 11 800] ------- [9:2 11:0 30 11] [17] 3 2
s 91.519066408 _16_ AGT  --- 1476 cbr 512 [0 0 0 0] ------- [16:0 17:0 32 0] [16] 0 1
r 91.530980314 _17_ AGT  --- 1476 cbr 532 [14a 11 e 800] ------- [16:0 17:0 31 17] [16] 2 1
s 91.937782680 _18_ AGT  --- 1477 cbr 512 [0 0 0 0] ------- [18:0 19:0 32 0] [2] 0 3
r 91.974065313 _19_ AGT  --- 1477 cbr 532 [14a 13 2d 800] ------- [18:0 19:0 27 19] [2] 6 3
s 92.771282035 _12_ AGT  --- 1478 cbr 512 [0 0 0 0] ------- [12:2 14:0 32 0] [11] 0 2
r 92.782636761 _14_ AGT  --- 1478 cbr 532 [14a e 2b 800] ------- [12:2 14:0 31 14] [11] 2 2
s 92.784156425 _8_ AGT  --- 1479 cbr 512 [0 0 0 0] ------- [8:1 10:0 32 0] [14] 0 2
D 92.784156425 _8_ RTR  IFQ 1213 cbr 532 [0 0 0 0] ------- [8:1 10:0 32 0] [9] 0 2
s 93.068089551 _19_ AGT  --- 1480 cbr 512 [0 0 0 0] ------- [19:1 20:1 32 0] [4] 0 3
s 93.212533214 _20_ AGT  --- 1481 cbr 512 [0 0 0 0] ------- [20:2 21:0 32 0] [2] 0 1
r 93.224627608 _21_ AGT  --- 1481 cbr 532 [14a 15 2a 800] ------- [20:2 21:0 31 21] [2] 2 1
s 94.338372302 _18_ AGT  --- 1482 cbr 512 [0 0 0 0] ------- [18:1 20:0 32 0] [18] 0 2
r 94.356823830 _20_ AGT  --- 1482 cbr 532 [14a 14 2a 800] ------- [18:1 20:0 30 20] [18] 3 2
D 95.052126414 _8_ IFQ  ARP 1267 cbr 552 [0 0 8 800] ------- [8:1 10:0 32 3] [10] 0 2
D 95.052126414 _8_ IFQ  ARP 1283 cbr 552 [0 0 8 800] ------- [8:1 10:0 32 3] [11] 0 2
D 95.052126414 _8_ RTR  CBK 1398 cbr 552 [0 0 8 800] ------- [8:1 10:0 32 3] [12] 0 2
D 95.052126414 _8_ RTR  CBK 1470 cbr 552 [0 0 8 800] ------- [8:1 10:0 32 3] [13] 0 2
D 95.052126456 _13_ IFQ  ARP 1123 cbr 552 [0 0 d 800] ------- [13:2 14:1 32 3] [11] 0 3
D 95.052126456 _13_ IFQ  ARP 1265 cbr 552 [0 0 d 800] ------- [13:2 14:1 32 3] [12] 0 3
D 95.052126456 _13_ RTR  CBK 1277 cbr 552 [0 0 d 800] ------- [13:2 14:1 32 3] [13] 0 3
D 95.052126456 _13_ RTR  CBK 1335 cbr 552 [0 0 d 800] ------- [13:2 14:1 32 3] [14] 0 3
r 95.128106124 _10_ AGT  --- 1479 cbr 552 [14a a 1d 800] ------- [8:1 10:0 28 10] [14] 5 2
r 95.137159898 _14_ AGT  --- 1471 cbr 552 [14a e 16 800] ------- [13:2 14:1 28 14] [15] 5 3
s 95.140180285 _12_ AGT  --- 1485 cbr 512 [0 0 0 0] ------- [12:2 14:0 32 0] [12] 0 2
r 95.152535011 _14_ AGT  --- 1485 cbr 532 [14a e 2b 800] ------- [12:2 14:0 31 14] [12] 2 2
s 95.346555844 _2_ AGT  --- 1488 cbr 512 [0 0 0 0] ------- [2:1 3:1 32 0] [4] 0 3
r 95.382619210 _3_ AGT  --- 1488 cbr 532 [14a 3 4 800] ------- [2:1 3:1 27 3] [4] 6 3
s 95.405160821 _18_ AGT  --- 1499 cbr 512 [0 0 0 0] ------- [18:0 19:0 32 0] [3] 0 3
s 95.443899280 _13_ AGT  --- 1506 cbr 512 [0 0 0 0] ------- [13:2 14:1 32 0] [16] 0 3
r 95.445326319 _19_ AGT  --- 1499 cbr 532 [14a 13 2d 800] ------- [18:0 19:0 27 19] [3] 6 3
r 95.474484834 _14_ AGT  --- 1506 cbr 532 [14a e 16 800] ------- [13:2 14:1 28 14] [16] 5 3
s 95.688409215 _9_ AGT  --- 1510 cbr 512 [0 0 0 0] ------- [9:2 11:0 32 0] [18] 0 2
r 95.706280489 _11_ AGT  --- 1510 cbr 532 [14a b 11 800] ------- [9:2 11:0 30 11] [18] 3 2
s 95.724045680 _16_ AGT  --- 1511 cbr 512 [0 0 0 0] ------- [16:0 17:0 32 0] [17] 0 1
r 95.735719587 _17_ AGT  --- 1511 cbr 532 [14a 11 e 800] ------- [16:0 17:0 31 17] [17] 2 1
s 96.555016003 _19_ AGT  --- 1540 cbr 512 [0 0 0 0] ------- [19:1 20:1 32 0] [5] 0 3
D 96.555016003 _19_ RTR  IFQ 1242 cbr 532 [0 0 0 0] ------- [19:1 20:1 32 0] [0] 0 3
s 97.490382189 _18_ AGT  --- 1582 cbr 512 [0 0 0 0] ------- [18:1 20:0 32 0] [19] 0 2
r 97.514366507 _20_ AGT  --- 1582 cbr 532 [14a 14 29 800] ------- [18:1 20:0 30 20] [19] 3 2
s 97.562793315 _18_ AGT  --- 1585 cbr 512 [0 0 0 0] ------- [18:0 19:0 32 0] [4] 0 3
r 97.605609660 _19_ AGT  --- 1585 cbr 532 [14a 13 2 800] ------- [18:0 19:0 27 19] [4] 6 3
s 97.685227897 _2_ AGT  --- 1588 cbr 512 [0 0 0 0] ------- [2:1 3:1 32 0] [5] 0 3
r 97.721131263 _3_ AGT  --- 1588 cbr 532 [14a 3 4 800] ------- [2:1 3:1 27 3] [5] 6 3
s 97.820382927 _20_ AGT  --- 1589 cbr 512 [0 0 0 0] ------- [20:2 21:0 32 0] [3] 0 1
r 97.832497321 _21_ AGT  --- 1589 cbr 532 [14a 15 2a 800] ------- [20:2 21:0 31 21] [3] 2 1
s 97.981387709 _12_ AGT  --- 1597 cbr 512 [0 0 0 0] ------- [12:2 14:0 32 0] [13] 0 2
r 97.993542435 _14_ AGT  --- 1597 cbr 532 [14a e 2b 800] ------- [12:2 14:0 31 14] [13] 2 2
s 98.493087152 _8_ AGT  --- 1620 cbr 512 [0 0 0 0] ------- [8:1 10:0 32 0] [15] 0 2
r 98.523412367 _10_ AGT  --- 1620 cbr 532 [14a a 1d 800] ------- [8:1 10:0 28 10] [15] 5 2
s 99.355920916 _19_ AGT  --- 1631 cbr 512 [0 0 0 0] ------- [19:1 20:1 32 0] [6] 0 3
D 99.355920916 _19_ RTR  IFQ 1274 cbr 532 [0 0 0 0] ------- [19:1 20:1 32 0] [1] 0 3
s 99.584282792 _16_ AGT  --- 1634 cbr 512 [0 0 0 0] ------- [16:0 17:0 32 0] [18] 0 1
r 99.595896552 _17_ AGT  --- 1634 cbr 532 [14a 11 a 800] ------- [16:0 17:0 31 17] [18] 2 1
s 99.986032470 _20_ AGT  --- 1636 cbr 512 [0 0 0 0] ------- [20:2 21:0 32 0] [4] 0 1
r 99.998146864 _21_ AGT  --- 1636 cbr 532 [14a 15 2a 800] ------- [20:2 21:0 31 21] [4] 2 1
s 100.276147274 _9_ AGT  --- 1642 cbr 512 [0 0 0 0] ------- [9:2 11:0 32 0] [19] 0 2
r 100.294658567 _11_ AGT  --- 1642 cbr 532 [14a b 11 800] ------- [9:2 11:0 30 11] [19] 3 2
s 101.291495685 _13_ AGT  --- 1647 cbr 512 [0 0 0 0] ------- [13:2 14:1 32 0] [17] 0 3
r 101.324898040 _14_ AGT  --- 1647 cbr 532 [14a e 1d 800] ------- [13:2 14:1 28 14] [17] 5 3
s 101.710269940 _12_ AGT  --- 1649 cbr 512 [0 0 0 0] ------- [12:2 14:0 32 0] [14] 0 2
r 101.721684666 _14_ AGT  --- 1649 cbr 532 [14a e 2b 800] ------- [12:2 14:0 31 14] [14] 2 2
s 101.907740685 _18_ AGT  --- 1650 cbr 512 [0 0 0 0] ------- [18:0 19:0 32 0] [5] 0 3
r 101.943243318 _19_ AGT  --- 1650 cbr 532 [14a 13 2d 800] ------- [18:0 19:0 27 19] [5] 6 3
s 102.061153730 _16_ AGT  --- 1651 cbr 512 [0 0 0 0] ------- [16:0 17:0 32 0] [19] 0 1
r 102.073127490 _17_ AGT  --- 1651 cbr 532 [14a 11 a 800] ------- [16:0 17:0 31 17] [19] 2 1
s 102.413189493 _18_ AGT  --- 1653 cbr 512 [0 0 0 0] ------- [18:1 20:0 32 0] [20] 0 2
r 102.431560865 _20_ AGT  --- 1653 cbr 532 [14a 14 29 800] ------- [18:1 20:0 30 20] [20] 3 2
s 102.862853257 _2_ AGT  --- 1654 cbr 512 [0 0 0 0] ------- [2:1 3:1 32 0] [6] 0 3
r 102.899416623 _3_ AGT  --- 1654 cbr 532 [14a 3 4 800] ------- [2:1 3:1 27 3] [6] 6 3
s 103.103036623 _19_ AGT  --- 1655 cbr 512 [0 0 0 0] ------- [19:1 20:1 32 0] [7] 0 3
D 103.103036623 _19_ RTR  IFQ 1435 cbr 532 [0 0 0 0] ------- [19:1 20:1 32 0] [2] 0 3
s 103.417812516 _20_ AGT  --- 1656 cbr 512 [0 0 0 0] ------- [20:2 21:0 32 0] [5] 0 1
r 103.429546910 _21_ AGT  --- 1656 cbr 532 [14a 15 2a 800] ------- [20:2 21:0 31 21] [5] 2 1
s 103.559250567 _8_ AGT  --- 1657 cbr 512 [0 0 0 0] ------- [8:1 10:0 32 0] [16] 0 2
r 103.588995781 _10_ AGT  --- 1657 cbr 532 [14a a 1d 800] ------- [8:1 10:0 28 10] [16] 5 2
s 104.768566739 _12_ AGT  --- 1658 cbr 512 [0 0 0 0] ------- [12:2 14:0 32 0] [15] 0 2
r 104.780081466 _14_ AGT  --- 1658 cbr 532 [14a e 2b 800] ------- [12:2 14:0 31 14] [15] 2 2
s 105.331487646 _9_ AGT  --- 1659 cbr 512 [0 0 0 0] ------- [9:2 11:0 32 0] [20] 0 2
r 105.349238940 _11_ AGT  --- 1659 cbr 532 [14a b 11 800] ------- [9:2 11:0 30 11] [20] 3 2
s 105.979481000 _18_ AGT  --- 1660 cbr 512 [0 0 0 0] ------- [18:1 20:0 32 0] [21] 0 2
r 105.997392373 _20_ AGT  --- 1660 cbr 532 [14a 14 29 800] ------- [18:1 20:0 30 20] [21] 3 2
s 106.021923212 _13_ AGT  --- 1661 cbr 512 [0 0 0 0] ------- [13:2 14:1 32 0] [18] 0 3
r 106.052588887 _14_ AGT  --- 1661 cbr 532 [14a e 1d 800] ------- [13:2 14:1 28 14] [18] 5 3
s 106.083234244 _12_ AGT  --- 1662 cbr 512 [0 0 0 0] ------- [12:1 13:1 32 0] [0] 0 2
r 106.121613285 _13_ AGT  --- 1662 cbr 532 [14a d 30 800] ------- [12:1 13:1 27 13] [0] 6 2
s 106.555736187 _2_ AGT  --- 1663 cbr 512 [0 0 0 0] ------- [2:1 3:1 32 0] [7] 0 3
r 106.592799553 _3_ AGT  --- 1663 cbr 532 [14a 3 4 800] ------- [2:1 3:1 27 3] [7] 6 3
s 106.822290148 _16_ AGT  --- 1664 cbr 512 [0 0 0 0] ------- [16:0 17:0 32 0] [20] 0 1
r 106.833943908 _17_ AGT  --- 1664 cbr 532 [14a 11 a 800] ------- [16:0 17:0 31 17] [20] 2 1
s 107.082674281 _18_ AGT  --- 1670 cbr 512 [0 0 0 0] ------- [18:0 19:0 32 0] [6] 0 3
r 107.118456915 _19_ AGT  --- 1670 cbr 532 [14a 13 2d 800] ------- [18:0 19:0 27 19] [6] 6 3
s 107.119580985 _19_ AGT  --- 1671 cbr 512 [0 0 0 0] ------- [19:1 20:1 32 0] [8] 0 3
D 107.119580985 _19_ RTR  IFQ 1469 cbr 532 [0 0 0 0] ------- [19:1 20:1 32 0] [3] 0 3
s 108.539271394 _8_ AGT  --- 1708 cbr 512 [0 0 0 0] ------- [8:1 10:0 32 0] [17] 0 2
r 108.569996609 _10_ AGT  --- 1708 cbr 532 [14a a 1d 800] ------- [8:1 10:0 28 10] [17] 5 2
s 108.659512318 _20_ AGT  --- 1710 cbr 512 [0 0 0 0] ------- [20:2 21:0 32 0] [6] 0 1
r 108.671626712 _21_ AGT  --- 1710 cbr 532 [14a 15 2a 800] ------- [20:2 21:0 31 21] [6] 2 1
s 109.065562702 _13_ AGT  --- 1733 cbr 512 [0 0 0 0] ------- [13:2 14:1 32 0] [19] 0 3
s 109.084950842 _12_ AGT  --- 1734 cbr 512 [0 0 0 0] ------- [12:2 14:0 32 0] [16] 0 2
r 109.095068378 _14_ AGT  --- 1733 cbr 532 [14a e 1d 800] ------- [13:2 14:1 28 14] [19] 5 3
r 109.109353568 _14_ AGT  --- 1734 cbr 532 [14a e 2b 800] ------- [12:2 14:0 31 14] [16] 2 2
s 109.847346153 _16_ AGT  --- 1759 cbr 512 [0 0 0 0] ------- [16:0 17:0 32 0] [21] 0 1
r 109.859560499 _17_ AGT  --- 1759 cbr 532 [14a 11 22 800] ------- [16:0 17:0 31 17] [21] 2 1
s 109.886907438 _19_ AGT  --- 1760 cbr 512 [0 0 0 0] ------- [19:1 20:1 32 0] [9] 0 3
D 109.886907438 _19_ RTR  IFQ 1480 cbr 532 [0 0 0 0] ------- [19:1 20:1 32 0] [4] 0 3
s 109.888970127 _12_ AGT  --- 1761 cbr 512 [0 0 0 0] ------- [12:1 13:1 32 0] [1] 0 2
r 109.925192602 _13_ AGT  --- 1761 cbr 532 [14a d 30 800] ------- [12:1 13:1 27 13] [1] 6 2
s 110.052417605 _11_ AGT  --- 1776 cbr 512 [0 0 0 0] ------- [11:3 13:0 32 0] [0] 0 3
r 110.088120483 _13_ AGT  --- 1776 cbr 532 [14a d 30 800] ------- [11:3 13:0 27 13] [0] 6 3
s 110.245258177 _2_ AGT  --- 1782 cbr 512 [0 0 0 0] ------- [2:1 3:1 32 0] [8] 0 3
r 110.284137070 _3_ AGT  --- 1782 cbr 532 [14a 3 12 800] ------- [2:1 3:1 27 3] [8] 6 3
s 110.743842743 _18_ AGT  --- 1793 cbr 512 [0 0 0 0] ------- [18:1 20:0 32 0] [22] 0 2
r 110.761574271 _20_ AGT  --- 1793 cbr 532 [14a 14 2a 800] ------- [18:1 20:0 30 20] [22] 3 2
s 110.799230912 _9_ AGT  --- 1794 cbr 512 [0 0 0 0] ------- [9:2 11:0 32 0] [21] 0 2
r 110.817302206 _11_ AGT  --- 1794 cbr 532 [14a b 11 800] ------- [9:2 11:0 30 11] [21] 3 2
s 111.712105673 _18_ AGT  --- 1801 cbr 512 [0 0 0 0] ------- [18:0 19:0 32 0] [7] 0 3
r 111.748148307 _19_ AGT  --- 1801 cbr 532 [14a 13 2d 800] ------- [18:0 19:0 27 19] [7] 6 3
s 112.856725224 _19_ AGT  --- 1807 cbr 512 [0 0 0 0] ------- [19:1 20:1 32 0] [10] 0 3
D 112.856725224 _19_ RTR  IFQ 1540 cbr 532 [0 0 0 0] ------- [19:1 20:1 32 0] [5] 0 3
s 113.245332290 _18_ AGT  --- 1808 cbr 512 [0 0 0 0] ------- [18:1 20:0 32 0] [23] 0 2
r 113.263143818 _20_ AGT  --- 1808 cbr 532 [14a 14 2a 800] ------- [18:1 20:0 30 20] [23] 3 2
s 113.628050758 _20_ AGT  --- 1810 cbr 512 [0 0 0 0] ------- [20:2 21:0 32 0] [7] 0 1
r 113.640185152 _21_ AGT  --- 1810 cbr 532 [14a 15 2a 800] ------- [20:2 21:0 31 21] [7] 2 1
s 114.072634735 _8_ AGT  --- 1811 cbr 512 [0 0 0 0] ------- [8:1 10:0 32 0] [18] 0 2
r 114.102479950 _10_ AGT  --- 1811 cbr 532 [14a a 1d 800] ------- [8:1 10:0 28 10] [18] 5 2
s 114.332701791 _11_ AGT  --- 1812 cbr 512 [0 0 0 0] ------- [11:3 13:0 32 0] [1] 0 3
r 114.369144669 _13_ AGT  --- 1812 cbr 532 [14a d 30 800] ------- [11:3 13:0 27 13] [1] 6 3
s 114.525655456 _13_ AGT  --- 1813 cbr 512 [0 0 0 0] ------- [13:2 14:1 32 0] [20] 0 3
s 114.541847647 _9_ AGT  --- 1814 cbr 512 [0 0 0 0] ------- [9:2 11:0 32 0] [22] 0 2
r 114.559978941 _11_ AGT  --- 1814 cbr 532 [14a b 11 800] ------- [9:2 11:0 30 11] [22] 3 2
r 114.565937132 _14_ AGT  --- 1813 cbr 532 [14a e 1d 800] ------- [13:2 14:1 28 14] [20] 5 3
s 114.996159038 _12_ AGT  --- 1815 cbr 512 [0 0 0 0] ------- [12:2 14:0 32 0] [17] 0 2
r 115.008033764 _14_ AGT  --- 1815 cbr 532 [14a e 2b 800] ------- [12:2 14:0 31 14] [17] 2 2
s 115.026357194 _12_ AGT  --- 1816 cbr 512 [0 0 0 0] ------- [12:1 13:1 32 0] [2] 0 2
r 115.062459669 _13_ AGT  --- 1816 cbr 532 [14a d 30 800] ------- [12:1 13:1 27 13] [2] 6 2
s 115.141488239 _18_ AGT  --- 1817 cbr 512 [0 0 0 0] ------- [18:0 19:0 32 0] [8] 0 3
r 115.177590873 _19_ AGT  --- 1817 cbr 532 [14a 13 2d 800] ------- [18:0 19:0 27 19] [8] 6 3
s 115.294296709 _2_ AGT  --- 1818 cbr 512 [0 0 0 0] ------- [2:1 3:1 32 0] [9] 0 3
r 115.331399465 _3_ AGT  --- 1818 cbr 532 [14a 3 12 800] ------- [2:1 3:1 27 3] [9] 6 3
s 115.353615536 _16_ AGT  --- 1819 cbr 512 [0 0 0 0] ------- [16:0 17:0 32 0] [22] 0 1
r 115.365749882 _17_ AGT  --- 1819 cbr 532 [14a 11 22 800] ------- [16:0 17:0 31 17] [22] 2 1
s 115.548836776 _18_ AGT  --- 1820 cbr 512 [0 0 0 0] ------- [18:1 20:0 32 0] [24] 0 2
r 115.566468304 _20_ AGT  --- 1820 cbr 532 [14a 14 2a 800] ------- [18:1 20:0 30 20] [24] 3 2
s 116.871496299 _9_ AGT  --- 1822 cbr 512 [0 0 0 0] ------- [9:2 11:0 32 0] [23] 0 2
r 116.889567592 _11_ AGT  --- 1822 cbr 532 [14a b 11 800] ------- [9:2 11:0 30 11] [23] 3 2