+ 0 0 2 tcp 1000 ------- 1 0.0 3.0 0 0 0 0x0 0 0
- 0 0 2 tcp 1000 ------- 1 0.0 3.0 0 0 0 0x0 0 0
r 0.001 0 2 tcp 1000 ------- 1 0.0 3.0 0 0 0 0x0 0 0
+ 0.001 2 3 tcp 1000 ------- 1 0.0 3.0 0 0 0 0x0 0 0
- 0.001 2 3 tcp 1000 ------- 1 0.0 3.0 0 0 0 0x0 0 0
r 0.111 2 3 tcp 1000 ------- 1 0.0 3.0 0 0 0 0x0 0 0
+ 0.111 3 2 ack 40 ------- 1 3.0 0.0 0 1 0 0x0 0 0
- 0.111 3 2 ack 40 ------- 1 3.0 0.0 0 1 0 0x0 0 0
r 0.2114 3 2 ack 40 ------- 1 3.0 0.0 0 1 0 0x0 0 0
+ 0.2114 2 0 ack 40 ------- 1 3.0 0.0 0 1 0 0x0 0 0
- 0.2114 2 0 ack 40 ------- 1 3.0 0.0 0 1 0 0x0 0 0
r 0.21144 2 0 ack 40 ------- 1 3.0 0.0 0 1 0 0x0 0 0
+ 0.21144 0 2 tcp 1000 ------- 1 0.0 3.0 1 2 0 0x0 0 0
- 0.21144 0 2 tcp 1000 ------- 1 0.0 3.0 1 2 0 0x0 0 0
+ 0.21144 0 2 tcp 1000 ------- 1 0.0 3.0 2 3 0 0x0 0 0
r 0.21244 0 2 tcp 1000 ------- 1 0.0 3.0 1 2 0 0x0 0 0
+ 0.21244 2 3 tcp 1000 ------- 1 0.0 3.0 1 2 0 0x0 0 0
- 0.21244 2 3 tcp 1000 ------- 1 0.0 3.0 1 2 0 0x0 0 0
- 0.21244 0 2 tcp 1000 ------- 1 0.0 3.0 2 3 0 0x0 0 0
r 0.21344 0 2 tcp 1000 ------- 1 0.0 3.0 2 3 0 0x0 0 0
+ 0.21344 2 3 tcp 1000 ------- 1 0.0 3.0 2 3 0 0x0 0 0
- 0.22244 2 3 tcp 1000 ------- 1 0.0 3.0 2 3 0 0x0 0 0
r 0.32244 2 3 tcp 1000 ------- 1 0.0 3.0 1 2 0 0x0 0 0
+ 0.32244 3 2 ack 40 ------- 1 3.0 0.0 1 4 0 0x0 0 0
- 0.32244 3 2 ack 40 ------- 1 3.0 0.0 1 4 0 0x0 0 0
r 0.33244 2 3 tcp 1000 ------- 1 0.0 3.0 2 3 0 0x0 0 0
+ 0.33244 3 2 ack 40 ------- 1 3.0 0.0 2 5 0 0x0 0 0
- 0.33244 3 2 ack 40 ------- 1 3.0 0.0 2 5 0 0x0 0 0
r 0.42284 3 2 ack 40 ------- 1 3.0 0.0 1 4 0 0x0 0 0
+ 0.42284 2 0 ack 40 ------- 1 3.0 0.0 1 4 0 0x0 0 0
- 0.42284 2 0 ack 40 ------- 1 3.0 0.0 1 4 0 0x0 0 0
r 0.42288 2 0 ack 40 ------- 1 3.0 0.0 1 4 0 0x0 0 0
+ 0.42288 0 2 tcp 1000 ------- 1 0.0 3.0 3 6 0 0x0 0 0
- 0.42288 0 2 tcp 1000 ------- 1 0.0 3.0 3 6 0 0x0 0 0
+ 0.42288 0 2 tcp 1000 ------- 1 0.0 3.0 4 7 0 0x0 0 0
r 0.42388 0 2 tcp 1000 ------- 1 0.0 3.0 3 6 0 0x0 0 0
d 0.42388 2 3 tcp 1000 ------- 1 0.0 3.0 3 6 0 0x0 0 0
- 0.42388 0 2 tcp 1000 ------- 1 0.0 3.0 4 7 0 0x0 0 0
r 0.42488 0 2 tcp 1000 ------- 1 0.0 3.0 4 7 0 0x0 0 0
+ 0.42488 2 3 tcp 1000 ------- 1 0.0 3.0 4 7 0 0x0 0 0
- 0.42488 2 3 tcp 1000 ------- 1 0.0 3.0 4 7 0 0x0 0 0
r 0.43284 3 2 ack 40 ------- 1 3.0 0.0 2 5 0 0x0 0 0
+ 0.43284 2 0 ack 40 ------- 1 3.0 0.0 2 5 0 0x0 0 0
- 0.43284 2 0 ack 40 ------- 1 3.0 0.0 2 5 0 0x0 0 0
r 0.43288 2 0 ack 40 ------- 1 3.0 0.0 2 5 0 0x0 0 0
+ 0.43288 0 2 tcp 1000 ------- 1 0.0 3.0 5 8 0 0x0 0 0
- 0.43288 0 2 tcp 1000 ------- 1 0.0 3.0 5 8 0 0x0 0 0
+ 0.43288 0 2 tcp 1000 ------- 1 0.0 3.0 6 9 0 0x0 0 0
r 0.43388 0 2 tcp 1000 ------- 1 0.0 3.0 5 8 0 0x0 0 0
+ 0.43388 2 3 tcp 1000 ------- 1 0.0 3.0 5 8 0 0x0 0 0
- 0.43388 0 2 tcp 1000 ------- 1 0.0 3.0 6 9 0 0x0 0 0
- 0.43488 2 3 tcp 1000 ------- 1 0.0 3.0 5 8 0 0x0 0 0
r 0.43488 0 2 tcp 1000 ------- 1 0.0 3.0 6 9 0 0x0 0 0
+ 0.43488 2 3 tcp 1000 ------- 1 0.0 3.0 6 9 0 0x0 0 0
- 0.44488 2 3 tcp 1000 ------- 1 0.0 3.0 6 9 0 0x0 0 0
r 0.53488 2 3 tcp 1000 ------- 1 0.0 3.0 4 7 0 0x0 0 0
+ 0.53488 3 2 ack 40 ------- 1 3.0 0.0 2 10 0 0x0 0 0
- 0.53488 3 2 ack 40 ------- 1 3.0 0.0 2 10 0 0x0 0 0
r 0.54488 2 3 tcp 1000 ------- 1 0.0 3.0 5 8 0 0x0 0 0
+ 0.54488 3 2 ack 40 ------- 1 3.0 0.0 2 11 0 0x0 0 0
- 0.54488 3 2 ack 40 ------- 1 3.0 0.0 2 11 0 0x0 0 0
r 0.55488 2 3 tcp 1000 ------- 1 0.0 3.0 6 9 0 0x0 0 0
+ 0.55488 3 2 ack 40 ------- 1 3.0 0.0 2 12 0 0x0 0 0
- 0.55488 3 2 ack 40 ------- 1 3.0 0.0 2 12 0 0x0 0 0
r 0.63528 3 2 ack 40 ------- 1 3.0 0.0 2 10 0 0x0 0 0
+ 0.63528 2 0 ack 40 ------- 1 3.0 0.0 2 10 0 0x0 0 0
- 0.63528 2 0 ack 40 ------- 1 3.0 0.0 2 10 0 0x0 0 0
r 0.63532 2 0 ack 40 ------- 1 3.0 0.0 2 10 0 0x0 0 0
r 0.64528 3 2 ack 40 ------- 1 3.0 0.0 2 11 0 0x0 0 0
+ 0.64528 2 0 ack 40 ------- 1 3.0 0.0 2 11 0 0x0 0 0
- 0.64528 2 0 ack 40 ------- 1 3.0 0.0 2 11 0 0x0 0 0
r 0.64532 2 0 ack 40 ------- 1 3.0 0.0 2 11 0 0x0 0 0
r 0.65528 3 2 ack 40 ------- 1 3.0 0.0 2 12 0 0x0 0 0
+ 0.65528 2 0 ack 40 ------- 1 3.0 0.0 2 12 0 0x0 0 0
- 0.65528 2 0 ack 40 ------- 1 3.0 0.0 2 12 0 0x0 0 0
r 0.65532 2 0 ack 40 ------- 1 3.0 0.0 2 12 0 0x0 0 0
+ 0.65532 0 2 tcp 1000 ------- 1 0.0 3.0 3 13 0 0x0 0 0
- 0.65532 0 2 tcp 1000 ------- 1 0.0 3.0 3 13 0 0x0 0 0
+ 0.65532 0 2 tcp 1000 ---A--- 1 0.0 3.0 7 14 0 0x0 0 0
r 0.65632 0 2 tcp 1000 ------- 1 0.0 3.0 3 13 0 0x0 0 0
+ 0.65632 2 3 tcp 1000 ------- 1 0.0 3.0 3 13 0 0x0 0 0
- 0.65632 2 3 tcp 1000 ------- 1 0.0 3.0 3 13 0 0x0 0 0
- 0.65632 0 2 tcp 1000 ---A--- 1 0.0 3.0 7 14 0 0x0 0 0
r 0.65732 0 2 tcp 1000 ---A--- 1 0.0 3.0 7 14 0 0x0 0 0
+ 0.65732 2 3 tcp 1000 ---A--- 1 0.0 3.0 7 14 0 0x0 0 0
- 0.66632 2 3 tcp 1000 ---A--- 1 0.0 3.0 7 14 0 0x0 0 0
r 0.76632 2 3 tcp 1000 ------- 1 0.0 3.0 3 13 0 0x0 0 0
+ 0.76632 3 2 ack 40 ------- 1 3.0 0.0 6 15 0 0x0 0 0
- 0.76632 3 2 ack 40 ------- 1 3.0 0.0 6 15 0 0x0 0 0
r 0.77632 2 3 tcp 1000 ---A--- 1 0.0 3.0 7 14 0 0x0 0 0
+ 0.77632 3 2 ack 40 ------- 1 3.0 0.0 7 16 0 0x0 0 0
- 0.77632 3 2 ack 40 ------- 1 3.0 0.0 7 16 0 0x0 0 0
r 0.86672 3 2 ack 40 ------- 1 3.0 0.0 6 15 0 0x0 0 0
+ 0.86672 2 0 ack 40 ------- 1 3.0 0.0 6 15 0 0x0 0 0
- 0.86672 2 0 ack 40 ------- 1 3.0 0.0 6 15 0 0x0 0 0
r 0.86676 2 0 ack 40 ------- 1 3.0 0.0 6 15 0 0x0 0 0
+ 0.86676 0 2 tcp 1000 ------- 1 0.0 3.0 8 17 0 0x0 0 0
- 0.86676 0 2 tcp 1000 ------- 1 0.0 3.0 8 17 0 0x0 0 0
r 0.86776 0 2 tcp 1000 ------- 1 0.0 3.0 8 17 0 0x0 0 0
+ 0.86776 2 3 tcp 1000 ------- 1 0.0 3.0 8 17 0 0x0 0 0
- 0.86776 2 3 tcp 1000 ------- 1 0.0 3.0 8 17 0 0x0 0 0
r 0.87672 3 2 ack 40 ------- 1 3.0 0.0 7 16 0 0x0 0 0
+ 0.87672 2 0 ack 40 ------- 1 3.0 0.0 7 16 0 0x0 0 0
- 0.87672 2 0 ack 40 ------- 1 3.0 0.0 7 16 0 0x0 0 0
r 0.87676 2 0 ack 40 ------- 1 3.0 0.0 7 16 0 0x0 0 0
+ 0.87676 0 2 tcp 1000 ------- 1 0.0 3.0 9 18 0 0x0 0 0
- 0.87676 0 2 tcp 1000 ------- 1 0.0 3.0 9 18 0 0x0 0 0
r 0.87776 0 2 tcp 1000 ------- 1 0.0 3.0 9 18 0 0x0 0 0
+ 0.87776 2 3 tcp 1000 ------- 1 0.0 3.0 9 18 0 0x0 0 0
- 0.87776 2 3 tcp 1000 ------- 1 0.0 3.0 9 18 0 0x0 0 0
r 0.97776 2 3 tcp 1000 ------- 1 0.0 3.0 8 17 0 0x0 0 0
+ 0.97776 3 2 ack 40 ------- 1 3.0 0.0 8 19 0 0x0 0 0
- 0.97776 3 2 ack 40 ------- 1 3.0 0.0 8 19 0 0x0 0 0
r 0.98776 2 3 tcp 1000 ------- 1 0.0 3.0 9 18 0 0x0 0 0
+ 0.98776 3 2 ack 40 ------- 1 3.0 0.0 9 20 0 0x0 0 0
- 0.98776 3 2 ack 40 ------- 1 3.0 0.0 9 20 0 0x0 0 0
r 1.07816 3 2 ack 40 ------- 1 3.0 0.0 8 19 0 0x0 0 0
+ 1.07816 2 0 ack 40 ------- 1 3.0 0.0 8 19 0 0x0 0 0
- 1.07816 2 0 ack 40 ------- 1 3.0 0.0 8 19 0 0x0 0 0
r 1.0782 2 0 ack 40 ------- 1 3.0 0.0 8 19 0 0x0 0 0
+ 1.0782 0 2 tcp 1000 ------- 1 0.0 3.0 10 21 0 0x0 0 0
- 1.0782 0 2 tcp 1000 ------- 1 0.0 3.0 10 21 0 0x0 0 0
+ 1.0782 0 2 tcp 1000 ------- 1 0.0 3.0 11 22 0 0x0 0 0
r 1.0792 0 2 tcp 1000 ------- 1 0.0 3.0 10 21 0 0x0 0 0
+ 1.0792 2 3 tcp 1000 ------- 1 0.0 3.0 10 21 0 0x0 0 0
- 1.0792 2 3 tcp 1000 ------- 1 0.0 3.0 10 21 0 0x0 0 0
- 1.0792 0 2 tcp 1000 ------- 1 0.0 3.0 11 22 0 0x0 0 0
r 1.0802 0 2 tcp 1000 ------- 1 0.0 3.0 11 22 0 0x0 0 0
+ 1.0802 2 3 tcp 1000 ------- 1 0.0 3.0 11 22 0 0x0 0 0
r 1.08816 3 2 ack 40 ------- 1 3.0 0.0 9 20 0 0x0 0 0
+ 1.08816 2 0 ack 40 ------- 1 3.0 0.0 9 20 0 0x0 0 0
- 1.08816 2 0 ack 40 ------- 1 3.0 0.0 9 20 0 0x0 0 0
r 1.0882 2 0 ack 40 ------- 1 3.0 0.0 9 20 0 0x0 0 0
+ 1.0882 0 2 tcp 1000 ------- 1 0.0 3.0 12 23 0 0x0 0 0
- 1.0882 0 2 tcp 1000 ------- 1 0.0 3.0 12 23 0 0x0 0 0
- 1.0892 2 3 tcp 1000 ------- 1 0.0 3.0 11 22 0 0x0 0 0
r 1.0892 0 2 tcp 1000 ------- 1 0.0 3.0 12 23 0 0x0 0 0
+ 1.0892 2 3 tcp 1000 ------- 1 0.0 3.0 12 23 0 0x0 0 0
- 1.0992 2 3 tcp 1000 ------- 1 0.0 3.0 12 23 0 0x0 0 0
r 1.1892 2 3 tcp 1000 ------- 1 0.0 3.0 10 21 0 0x0 0 0
+ 1.1892 3 2 ack 40 ------- 1 3.0 0.0 10 24 0 0x0 0 0
- 1.1892 3 2 ack 40 ------- 1 3.0 0.0 10 24 0 0x0 0 0
r 1.1992 2 3 tcp 1000 ------- 1 0.0 3.0 11 22 0 0x0 0 0
+ 1.1992 3 2 ack 40 ------- 1 3.0 0.0 11 25 0 0x0 0 0
- 1.1992 3 2 ack 40 ------- 1 3.0 0.0 11 25 0 0x0 0 0
r 1.2092 2 3 tcp 1000 ------- 1 0.0 3.0 12 23 0 0x0 0 0
+ 1.2092 3 2 ack 40 ------- 1 3.0 0.0 12 26 0 0x0 0 0
- 1.2092 3 2 ack 40 ------- 1 3.0 0.0 12 26 0 0x0 0 0
r 1.2896 3 2 ack 40 ------- 1 3.0 0.0 10 24 0 0x0 0 0
+ 1.2896 2 0 ack 40 ------- 1 3.0 0.0 10 24 0 0x0 0 0
- 1.2896 2 0 ack 40 ------- 1 3.0 0.0 10 24 0 0x0 0 0
r 1.28964 2 0 ack 40 ------- 1 3.0 0.0 10 24 0 0x0 0 0
+ 1.28964 0 2 tcp 1000 ------- 1 0.0 3.0 13 27 0 0x0 0 0
- 1.28964 0 2 tcp 1000 ------- 1 0.0 3.0 13 27 0 0x0 0 0
r 1.29064 0 2 tcp 1000 ------- 1 0.0 3.0 13 27 0 0x0 0 0
+ 1.29064 2 3 tcp 1000 ------- 1 0.0 3.0 13 27 0 0x0 0 0
- 1.29064 2 3 tcp 1000 ------- 1 0.0 3.0 13 27 0 0x0 0 0
r 1.2996 3 2 ack 40 ------- 1 3.0 0.0 11 25 0 0x0 0 0
+ 1.2996 2 0 ack 40 ------- 1 3.0 0.0 11 25 0 0x0 0 0
- 1.2996 2 0 ack 40 ------- 1 3.0 0.0 11 25 0 0x0 0 0
r 1.29964 2 0 ack 40 ------- 1 3.0 0.0 11 25 0 0x0 0 0
+ 1.29964 0 2 tcp 1000 ------- 1 0.0 3.0 14 28 0 0x0 0 0
- 1.29964 0 2 tcp 1000 ------- 1 0.0 3.0 14 28 0 0x0 0 0
+ 1.29964 0 2 tcp 1000 ------- 1 0.0 3.0 15 29 0 0x0 0 0
r 1.30064 0 2 tcp 1000 ------- 1 0.0 3.0 14 28 0 0x0 0 0
+ 1.30064 2 3 tcp 1000 ------- 1 0.0 3.0 14 28 0 0x0 0 0
- 1.30064 2 3 tcp 1000 ------- 1 0.0 3.0 14 28 0 0x0 0 0
- 1.30064 0 2 tcp 1000 ------- 1 0.0 3.0 15 29 0 0x0 0 0
r 1.30164 0 2 tcp 1000 ------- 1 0.0 3.0 15 29 0 0x0 0 0
+ 1.30164 2 3 tcp 1000 ------- 1 0.0 3.0 15 29 0 0x0 0 0
r 1.3096 3 2 ack 40 ------- 1 3.0 0.0 12 26 0 0x0 0 0
+ 1.3096 2 0 ack 40 ------- 1 3.0 0.0 12 26 0 0x0 0 0
- 1.3096 2 0 ack 40 ------- 1 3.0 0.0 12 26 0 0x0 0 0
r 1.30964 2 0 ack 40 ------- 1 3.0 0.0 12 26 0 0x0 0 0
+ 1.30964 0 2 tcp 1000 ------- 1 0.0 3.0 16 30 0 0x0 0 0
- 1.30964 0 2 tcp 1000 ------- 1 0.0 3.0 16 30 0 0x0 0 0
- 1.31064 2 3 tcp 1000 ------- 1 0.0 3.0 15 29 0 0x0 0 0
r 1.31064 0 2 tcp 1000 ------- 1 0.0 3.0 16 30 0 0x0 0 0
+ 1.31064 2 3 tcp 1000 ------- 1 0.0 3.0 16 30 0 0x0 0 0
- 1.32064 2 3 tcp 1000 ------- 1 0.0 3.0 16 30 0 0x0 0 0
r 1.40064 2 3 tcp 1000 ------- 1 0.0 3.0 13 27 0 0x0 0 0
+ 1.40064 3 2 ack 40 ------- 1 3.0 0.0 13 31 0 0x0 0 0
- 1.40064 3 2 ack 40 ------- 1 3.0 0.0 13 31 0 0x0 0 0
r 1.41064 2 3 tcp 1000 ------- 1 0.0 3.0 14 28 0 0x0 0 0
+ 1.41064 3 2 ack 40 ------- 1 3.0 0.0 14 32 0 0x0 0 0
- 1.41064 3 2 ack 40 ------- 1 3.0 0.0 14 32 0 0x0 0 0
r 1.42064 2 3 tcp 1000 ------- 1 0.0 3.0 15 29 0 0x0 0 0
+ 1.42064 3 2 ack 40 ------- 1 3.0 0.0 15 33 0 0x0 0 0
- 1.42064 3 2 ack 40 ------- 1 3.0 0.0 15 33 0 0x0 0 0
r 1.43064 2 3 tcp 1000 ------- 1 0.0 3.0 16 30 0 0x0 0 0
+ 1.43064 3 2 ack 40 ------- 1 3.0 0.0 16 34 0 0x0 0 0
- 1.43064 3 2 ack 40 ------- 1 3.0 0.0 16 34 0 0x0 0 0
r 1.50104 3 2 ack 40 ------- 1 3.0 0.0 13 31 0 0x0 0 0
+ 1.50104 2 0 ack 40 ------- 1 3.0 0.0 13 31 0 0x0 0 0
- 1.50104 2 0 ack 40 ------- 1 3.0 0.0 13 31 0 0x0 0 0
r 1.50108 2 0 ack 40 ------- 1 3.0 0.0 13 31 0 0x0 0 0
+ 1.50108 0 2 tcp 1000 ------- 1 0.0 3.0 17 35 0 0x0 0 0
- 1.50108 0 2 tcp 1000 ------- 1 0.0 3.0 17 35 0 0x0 0 0
r 1.50208 0 2 tcp 1000 ------- 1 0.0 3.0 17 35 0 0x0 0 0
+ 1.50208 2 3 tcp 1000 ------- 1 0.0 3.0 17 35 0 0x0 0 0
- 1.50208 2 3 tcp 1000 ------- 1 0.0 3.0 17 35 0 0x0 0 0
r 1.51104 3 2 ack 40 ------- 1 3.0 0.0 14 32 0 0x0 0 0
+ 1.51104 2 0 ack 40 ------- 1 3.0 0.0 14 32 0 0x0 0 0
- 1.51104 2 0 ack 40 ------- 1 3.0 0.0 14 32 0 0x0 0 0
r 1.51108 2 0 ack 40 ------- 1 3.0 0.0 14 32 0 0x0 0 0
+ 1.51108 0 2 tcp 1000 ------- 1 0.0 3.0 18 36 0 0x0 0 0
- 1.51108 0 2 tcp 1000 ------- 1 0.0 3.0 18 36 0 0x0 0 0
r 1.51208 0 2 tcp 1000 ------- 1 0.0 3.0 18 36 0 0x0 0 0
+ 1.51208 2 3 tcp 1000 ------- 1 0.0 3.0 18 36 0 0x0 0 0
- 1.51208 2 3 tcp 1000 ------- 1 0.0 3.0 18 36 0 0x0 0 0
r 1.52104 3 2 ack 40 ------- 1 3.0 0.0 15 33 0 0x0 0 0
+ 1.52104 2 0 ack 40 ------- 1 3.0 0.0 15 33 0 0x0 0 0
- 1.52104 2 0 ack 40 ------- 1 3.0 0.0 15 33 0 0x0 0 0
r 1.52108 2 0 ack 40 ------- 1 3.0 0.0 15 33 0 0x0 0 0
+ 1.52108 0 2 tcp 1000 ------- 1 0.0 3.0 19 37 0 0x0 0 0
- 1.52108 0 2 tcp 1000 ------- 1 0.0 3.0 19 37 0 0x0 0 0
r 1.52208 0 2 tcp 1000 ------- 1 0.0 3.0 19 37 0 0x0 0 0
+ 1.52208 2 3 tcp 1000 ------- 1 0.0 3.0 19 37 0 0x0 0 0
- 1.52208 2 3 tcp 1000 ------- 1 0.0 3.0 19 37 0 0x0 0 0
r 1.53104 3 2 ack 40 ------- 1 3.0 0.0 16 34 0 0x0 0 0
+ 1.53104 2 0 ack 40 ------- 1 3.0 0.0 16 34 0 0x0 0 0
- 1.53104 2 0 ack 40 ------- 1 3.0 0.0 16 34 0 0x0 0 0
r 1.53108 2 0 ack 40 ------- 1 3.0 0.0 16 34 0 0x0 0 0
+ 1.53108 0 2 tcp 1000 ------- 1 0.0 3.0 20 38 0 0x0 0 0
- 1.53108 0 2 tcp 1000 ------- 1 0.0 3.0 20 38 0 0x0 0 0
+ 1.53108 0 2 tcp 1000 ------- 1 0.0 3.0 21 39 0 0x0 0 0
r 1.53208 0 2 tcp 1000 ------- 1 0.0 3.0 20 38 0 0x0 0 0
+ 1.53208 2 3 tcp 1000 ------- 1 0.0 3.0 20 38 0 0x0 0 0
- 1.53208 2 3 tcp 1000 ------- 1 0.0 3.0 20 38 0 0x0 0 0
- 1.53208 0 2 tcp 1000 ------- 1 0.0 3.0 21 39 0 0x0 0 0
r 1.53308 0 2 tcp 1000 ------- 1 0.0 3.0 21 39 0 0x0 0 0
+ 1.53308 2 3 tcp 1000 ------- 1 0.0 3.0 21 39 0 0x0 0 0
- 1.54208 2 3 tcp 1000 ------- 1 0.0 3.0 21 39 0 0x0 0 0
r 1.61208 2 3 tcp 1000 ------- 1 0.0 3.0 17 35 0 0x0 0 0
+ 1.61208 3 2 ack 40 ------- 1 3.0 0.0 17 40 0 0x0 0 0
- 1.61208 3 2 ack 40 ------- 1 3.0 0.0 17 40 0 0x0 0 0
r 1.62208 2 3 tcp 1000 ------- 1 0.0 3.0 18 36 0 0x0 0 0
+ 1.62208 3 2 ack 40 ------- 1 3.0 0.0 18 41 0 0x0 0 0
- 1.62208 3 2 ack 40 ------- 1 3.0 0.0 18 41 0 0x0 0 0
r 1.63208 2 3 tcp 1000 ------- 1 0.0 3.0 19 37 0 0x0 0 0
+ 1.63208 3 2 ack 40 ------- 1 3.0 0.0 19 42 0 0x0 0 0
- 1.63208 3 2 ack 40 ------- 1 3.0 0.0 19 42 0 0x0 0 0
r 1.64208 2 3 tcp 1000 ------- 1 0.0 3.0 20 38 0 0x0 0 0
+ 1.64208 3 2 ack 40 ------- 1 3.0 0.0 20 43 0 0x0 0 0
- 1.64208 3 2 ack 40 ------- 1 3.0 0.0 20 43 0 0x0 0 0
r 1.65208 2 3 tcp 1000 ------- 1 0.0 3.0 21 39 0 0x0 0 0
+ 1.65208 3 2 ack 40 ------- 1 3.0 0.0 21 44 0 0x0 0 0
- 1.65208 3 2 ack 40 ------- 1 3.0 0.0 21 44 0 0x0 0 0
r 1.71248 3 2 ack 40 ------- 1 3.0 0.0 17 40 0 0x0 0 0
+ 1.71248 2 0 ack 40 ------- 1 3.0 0.0 17 40 0 0x0 0 0
- 1.71248 2 0 ack 40 ------- 1 3.0 0.0 17 40 0 0x0 0 0
r 1.71252 2 0 ack 40 ------- 1 3.0 0.0 17 40 0 0x0 0 0
+ 1.71252 0 2 tcp 1000 ------- 1 0.0 3.0 22 45 0 0x0 0 0
- 1.71252 0 2 tcp 1000 ------- 1 0.0 3.0 22 45 0 0x0 0 0
r 1.71352 0 2 tcp 1000 ------- 1 0.0 3.0 22 45 0 0x0 0 0
+ 1.71352 2 3 tcp 1000 ------- 1 0.0 3.0 22 45 0 0x0 0 0
- 1.71352 2 3 tcp 1000 ------- 1 0.0 3.0 22 45 0 0x0 0 0
r 1.72248 3 2 ack 40 ------- 1 3.0 0.0 18 41 0 0x0 0 0
+ 1.72248 2 0 ack 40 ------- 1 3.0 0.0 18 41 0 0x0 0 0
- 1.72248 2 0 ack 40 ------- 1 3.0 0.0 18 41 0 0x0 0 0
r 1.72252 2 0 ack 40 ------- 1 3.0 0.0 18 41 0 0x0 0 0
+ 1.72252 0 2 tcp 1000 ------- 1 0.0 3.0 23 46 0 0x0 0 0
- 1.72252 0 2 tcp 1000 ------- 1 0.0 3.0 23 46 0 0x0 0 0
r 1.72352 0 2 tcp 1000 ------- 1 0.0 3.0 23 46 0 0x0 0 0
+ 1.72352 2 3 tcp 1000 ------- 1 0.0 3.0 23 46 0 0x0 0 0
- 1.72352 2 3 tcp 1000 ------- 1 0.0 3.0 23 46 0 0x0 0 0
r 1.73248 3 2 ack 40 ------- 1 3.0 0.0 19 42 0 0x0 0 0
+ 1.73248 2 0 ack 40 ------- 1 3.0 0.0 19 42 0 0x0 0 0
- 1.73248 2 0 ack 40 ------- 1 3.0 0.0 19 42 0 0x0 0 0
r 1.73252 2 0 ack 40 ------- 1 3.0 0.0 19 42 0 0x0 0 0
+ 1.73252 0 2 tcp 1000 ------- 1 0.0 3.0 24 47 0 0x0 0 0
- 1.73252 0 2 tcp 1000 ------- 1 0.0 3.0 24 47 0 0x0 0 0
r 1.73352 0 2 tcp 1000 ------- 1 0.0 3.0 24 47 0 0x0 0 0
+ 1.73352 2 3 tcp 1000 ------- 1 0.0 3.0 24 47 0 0x0 0 0
- 1.73352 2 3 tcp 1000 ------- 1 0.0 3.0 24 47 0 0x0 0 0
r 1.74248 3 2 ack 40 ------- 1 3.0 0.0 20 43 0 0x0 0 0
+ 1.74248 2 0 ack 40 ------- 1 3.0 0.0 20 43 0 0x0 0 0
- 1.74248 2 0 ack 40 ------- 1 3.0 0.0 20 43 0 0x0 0 0
r 1.74252 2 0 ack 40 ------- 1 3.0 0.0 20 43 0 0x0 0 0
+ 1.74252 0 2 tcp 1000 ------- 1 0.0 3.0 25 48 0 0x0 0 0
- 1.74252 0 2 tcp 1000 ------- 1 0.0 3.0 25 48 0 0x0 0 0
r 1.74352 0 2 tcp 1000 ------- 1 0.0 3.0 25 48 0 0x0 0 0
+ 1.74352 2 3 tcp 1000 ------- 1 0.0 3.0 25 48 0 0x0 0 0
- 1.74352 2 3 tcp 1000 ------- 1 0.0 3.0 25 48 0 0x0 0 0
r 1.75248 3 2 ack 40 ------- 1 3.0 0.0 21 44 0 0x0 0 0
+ 1.75248 2 0 ack 40 ------- 1 3.0 0.0 21 44 0 0x0 0 0
- 1.75248 2 0 ack 40 ------- 1 3.0 0.0 21 44 0 0x0 0 0
r 1.75252 2 0 ack 40 ------- 1 3.0 0.0 21 44 0 0x0 0 0
+ 1.75252 0 2 tcp 1000 ------- 1 0.0 3.0 26 49 0 0x0 0 0
- 1.75252 0 2 tcp 1000 ------- 1 0.0 3.0 26 49 0 0x0 0 0
+ 1.75252 0 2 tcp 1000 ------- 1 0.0 3.0 27 50 0 0x0 0 0
r 1.75352 0 2 tcp 1000 ------- 1 0.0 3.0 26 49 0 0x0 0 0
+ 1.75352 2 3 tcp 1000 ------- 1 0.0 3.0 26 49 0 0x0 0 0
- 1.75352 2 3 tcp 1000 ------- 1 0.0 3.0 26 49 0 0x0 0 0
- 1.75352 0 2 tcp 1000 ------- 1 0.0 3.0 27 50 0 0x0 0 0
r 1.75452 0 2 tcp 1000 ------- 1 0.0 3.0 27 50 0 0x0 0 0
+ 1.75452 2 3 tcp 1000 ------- 1 0.0 3.0 27 50 0 0x0 0 0
- 1.76352 2 3 tcp 1000 ------- 1 0.0 3.0 27 50 0 0x0 0 0
r 1.82352 2 3 tcp 1000 ------- 1 0.0 3.0 22 45 0 0x0 0 0
+ 1.82352 3 2 ack 40 ------- 1 3.0 0.0 22 51 0 0x0 0 0
- 1.82352 3 2 ack 40 ------- 1 3.0 0.0 22 51 0 0x0 0 0
r 1.83352 2 3 tcp 1000 ------- 1 0.0 3.0 23 46 0 0x0 0 0
+ 1.83352 3 2 ack 40 ------- 1 3.0 0.0 23 52 0 0x0 0 0
- 1.83352 3 2 ack 40 ------- 1 3.0 0.0 23 52 0 0x0 0 0
r 1.84352 2 3 tcp 1000 ------- 1 0.0 3.0 24 47 0 0x0 0 0
+ 1.84352 3 2 ack 40 ------- 1 3.0 0.0 24 53 0 0x0 0 0
- 1.84352 3 2 ack 40 ------- 1 3.0 0.0 24 53 0 0x0 0 0
r 1.85352 2 3 tcp 1000 ------- 1 0.0 3.0 25 48 0 0x0 0 0
+ 1.85352 3 2 ack 40 ------- 1 3.0 0.0 25 54 0 0x0 0 0
- 1.85352 3 2 ack 40 ------- 1 3.0 0.0 25 54 0 0x0 0 0
r 1.86352 2 3 tcp 1000 ------- 1 0.0 3.0 26 49 0 0x0 0 0
+ 1.86352 3 2 ack 40 ------- 1 3.0 0.0 26 55 0 0x0 0 0
- 1.86352 3 2 ack 40 ------- 1 3.0 0.0 26 55 0 0x0 0 0
r 1.87352 2 3 tcp 1000 ------- 1 0.0 3.0 27 50 0 0x0 0 0
+ 1.87352 3 2 ack 40 ------- 1 3.0 0.0 27 56 0 0x0 0 0
- 1.87352 3 2 ack 40 ------- 1 3.0 0.0 27 56 0 0x0 0 0
r 1.92392 3 2 ack 40 ------- 1 3.0 0.0 22 51 0 0x0 0 0
+ 1.92392 2 0 ack 40 ------- 1 3.0 0.0 22 51 0 0x0 0 0
- 1.92392 2 0 ack 40 ------- 1 3.0 0.0 22 51 0 0x0 0 0
r 1.92396 2 0 ack 40 ------- 1 3.0 0.0 22 51 0 0x0 0 0
+ 1.92396 0 2 tcp 1000 ------- 1 0.0 3.0 28 57 0 0x0 0 0
- 1.92396 0 2 tcp 1000 ------- 1 0.0 3.0 28 57 0 0x0 0 0
r 1.92496 0 2 tcp 1000 ------- 1 0.0 3.0 28 57 0 0x0 0 0
+ 1.92496 2 3 tcp 1000 ------- 1 0.0 3.0 28 57 0 0x0 0 0
- 1.92496 2 3 tcp 1000 ------- 1 0.0 3.0 28 57 0 0x0 0 0
r 1.93392 3 2 ack 40 ------- 1 3.0 0.0 23 52 0 0x0 0 0
+ 1.93392 2 0 ack 40 ------- 1 3.0 0.0 23 52 0 0x0 0 0
- 1.93392 2 0 ack 40 ------- 1 3.0 0.0 23 52 0 0x0 0 0
r 1.93396 2 0 ack 40 ------- 1 3.0 0.0 23 52 0 0x0 0 0
+ 1.93396 0 2 tcp 1000 ------- 1 0.0 3.0 29 58 0 0x0 0 0
- 1.93396 0 2 tcp 1000 ------- 1 0.0 3.0 29 58 0 0x0 0 0
r 1.93496 0 2 tcp 1000 ------- 1 0.0 3.0 29 58 0 0x0 0 0
+ 1.93496 2 3 tcp 1000 ------- 1 0.0 3.0 29 58 0 0x0 0 0
- 1.93496 2 3 tcp 1000 ------- 1 0.0 3.0 29 58 0 0x0 0 0
r 1.94392 3 2 ack 40 ------- 1 3.0 0.0 24 53 0 0x0 0 0
+ 1.94392 2 0 ack 40 ------- 1 3.0 0.0 24 53 0 0x0 0 0
- 1.94392 2 0 ack 40 ------- 1 3.0 0.0 24 53 0 0x0 0 0
r 1.94396 2 0 ack 40 ------- 1 3.0 0.0 24 53 0 0x0 0 0
+ 1.94396 0 2 tcp 1000 ------- 1 0.0 3.0 30 59 0 0x0 0 0
- 1.94396 0 2 tcp 1000 ------- 1 0.0 3.0 30 59 0 0x0 0 0
r 1.94496 0 2 tcp 1000 ------- 1 0.0 3.0 30 59 0 0x0 0 0
+ 1.94496 2 3 tcp 1000 ------- 1 0.0 3.0 30 59 0 0x0 0 0
- 1.94496 2 3 tcp 1000 ------- 1 0.0 3.0 30 59 0 0x0 0 0
r 1.95392 3 2 ack 40 ------- 1 3.0 0.0 25 54 0 0x0 0 0
+ 1.95392 2 0 ack 40 ------- 1 3.0 0.0 25 54 0 0x0 0 0
- 1.95392 2 0 ack 40 ------- 1 3.0 0.0 25 54 0 0x0 0 0
r 1.95396 2 0 ack 40 ------- 1 3.0 0.0 25 54 0 0x0 0 0
+ 1.95396 0 2 tcp 1000 ------- 1 0.0 3.0 31 60 0 0x0 0 0
- 1.95396 0 2 tcp 1000 ------- 1 0.0 3.0 31 60 0 0x0 0 0
r 1.95496 0 2 tcp 1000 ------- 1 0.0 3.0 31 60 0 0x0 0 0
+ 1.95496 2 3 tcp 1000 ------- 1 0.0 3.0 31 60 0 0x0 0 0
- 1.95496 2 3 tcp 1000 ------- 1 0.0 3.0 31 60 0 0x0 0 0
r 1.96392 3 2 ack 40 ------- 1 3.0 0.0 26 55 0 0x0 0 0
+ 1.96392 2 0 ack 40 ------- 1 3.0 0.0 26 55 0 0x0 0 0
- 1.96392 2 0 ack 40 ------- 1 3.0 0.0 26 55 0 0x0 0 0
r 1.96396 2 0 ack 40 ------- 1 3.0 0.0 26 55 0 0x0 0 0
+ 1.96396 0 2 tcp 1000 ------- 1 0.0 3.0 32 61 0 0x0 0 0
- 1.96396 0 2 tcp 1000 ------- 1 0.0 3.0 32 61 0 0x0 0 0
r 1.96496 0 2 tcp 1000 ------- 1 0.0 3.0 32 61 0 0x0 0 0
+ 1.96496 2 3 tcp 1000 ------- 1 0.0 3.0 32 61 0 0x0 0 0
- 1.96496 2 3 tcp 1000 ------- 1 0.0 3.0 32 61 0 0x0 0 0
r 1.97392 3 2 ack 40 ------- 1 3.0 0.0 27 56 0 0x0 0 0
+ 1.97392 2 0 ack 40 ------- 1 3.0 0.0 27 56 0 0x0 0 0
- 1.97392 2 0 ack 40 ------- 1 3.0 0.0 27 56 0 0x0 0 0
r 1.97396 2 0 ack 40 ------- 1 3.0 0.0 27 56 0 0x0 0 0
+ 1.97396 0 2 tcp 1000 ------- 1 0.0 3.0 33 62 0 0x0 0 0
- 1.97396 0 2 tcp 1000 ------- 1 0.0 3.0 33 62 0 0x0 0 0
+ 1.97396 0 2 tcp 1000 ------- 1 0.0 3.0 34 63 0 0x0 0 0
r 1.97496 0 2 tcp 1000 ------- 1 0.0 3.0 33 62 0 0x0 0 0
+ 1.97496 2 3 tcp 1000 ------- 1 0.0 3.0 33 62 0 0x0 0 0
- 1.97496 2 3 tcp 1000 ------- 1 0.0 3.0 33 62 0 0x0 0 0
- 1.97496 0 2 tcp 1000 ------- 1 0.0 3.0 34 63 0 0x0 0 0
r 1.97596 0 2 tcp 1000 ------- 1 0.0 3.0 34 63 0 0x0 0 0
+ 1.97596 2 3 tcp 1000 ------- 1 0.0 3.0 34 63 0 0x0 0 0
- 1.98496 2 3 tcp 1000 ------- 1 0.0 3.0 34 63 0 0x0 0 0
