s 82.557023746 _2_ AGT  --- 0 cbr 512 [0 0 0 0] [energy 0.455000] ------- [2:0 3:0 32 0] [0] 0 2
s 82.557138746 _2_ MAC  --- 0 AODV 102 [0 ffffffff 2 800] [energy 0.455000] ------- [2:255 -1:255 30 0] [0x2 1 1 [3 0] [2 4]] (REQUEST)
N -t 82.557139 -n 4 -e 0.454755
N -t 82.557139 -n 0 -e 0.454755
N -t 82.557139 -n 1 -e 0.454755
N -t 82.557140 -n 3 -e 0.454755
r 82.557954941 _4_ MAC  --- 0 AODV 48 [0 ffffffff 2 800] [energy 0.454755] ------- [2:255 -1:255 30 0] [0x2 1 1 [3 0] [2 4]] (REQUEST)
r 82.557955030 _0_ MAC  --- 0 AODV 48 [0 ffffffff 2 800] [energy 0.454755] ------- [2:255 -1:255 30 0] [0x2 1 1 [3 0] [2 4]] (REQUEST)
r 82.557955491 _1_ MAC  --- 0 AODV 48 [0 ffffffff 2 800] [energy 0.454755] ------- [2:255 -1:255 30 0] [0x2 1 1 [3 0] [2 4]] (REQUEST)
s 82.559096168 _4_ MAC  --- 0 AODV 102 [0 ffffffff 4 800] [energy 0.454755] ------- [4:255 -1:255 29 0] [0x2 2 1 [3 0] [2 4]] (REQUEST)
N -t 82.559096 -n 2 -e 0.454266
N -t 82.559097 -n 0 -e 0.454510
N -t 82.559097 -n 1 -e 0.454510
N -t 82.559097 -n 3 -e 0.454510
r 82.559912362 _2_ MAC  --- 0 AODV 48 [0 ffffffff 4 800] [energy 0.454266] ------- [4:255 -1:255 29 0] [0x2 2 1 [3 0] [2 4]] (REQUEST)
r 82.559912622 _0_ MAC  --- 0 AODV 48 [0 ffffffff 4 800] [energy 0.454510] ------- [4:255 -1:255 29 0] [0x2 2 1 [3 0] [2 4]] (REQUEST)
s 82.562706764 _0_ MAC  --- 0 AODV 102 [0 ffffffff 0 800] [energy 0.454510] ------- [0:255 -1:255 29 0] [0x2 2 1 [3 0] [2 4]] (REQUEST)
N -t 82.562707 -n 2 -e 0.454021
N -t 82.562707 -n 4 -e 0.454021
N -t 82.562707 -n 1 -e 0.454266
N -t 82.562708 -n 3 -e 0.454266
r 82.563523047 _2_ MAC  --- 0 AODV 48 [0 ffffffff 0 800] [energy 0.454021] ------- [0:255 -1:255 29 0] [0x2 2 1 [3 0] [2 4]] (REQUEST)
r 82.563523218 _4_ MAC  --- 0 AODV 48 [0 ffffffff 0 800] [energy 0.454021] ------- [0:255 -1:255 29 0] [0x2 2 1 [3 0] [2 4]] (REQUEST)
r 82.563523353 _1_ MAC  --- 0 AODV 48 [0 ffffffff 0 800] [energy 0.454266] ------- [0:255 -1:255 29 0] [0x2 2 1 [3 0] [2 4]] (REQUEST)
s 82.566307045 _1_ MAC  --- 0 AODV 102 [0 ffffffff 1 800] [energy 0.454266] ------- [1:255 -1:255 29 0] [0x2 2 1 [3 0] [2 4]] (REQUEST)
N -t 82.566308 -n 0 -e 0.453776
N -t 82.566308 -n 3 -e 0.454021
N -t 82.566308 -n 2 -e 0.453776
N -t 82.566308 -n 4 -e 0.453776
r 82.567123635 _0_ MAC  --- 0 AODV 48 [0 ffffffff 1 800] [energy 0.453776] ------- [1:255 -1:255 29 0] [0x2 2 1 [3 0] [2 4]] (REQUEST)
r 82.567123674 _3_ MAC  --- 0 AODV 48 [0 ffffffff 1 800] [energy 0.454021] ------- [1:255 -1:255 29 0] [0x2 2 1 [3 0] [2 4]] (REQUEST)
r 82.567123789 _2_ MAC  --- 0 AODV 48 [0 ffffffff 1 800] [energy 0.453776] ------- [1:255 -1:255 29 0] [0x2 2 1 [3 0] [2 4]] (REQUEST)
s 82.567243674 _3_ MAC  --- 0 ARP 82 [0 ffffffff 3 806] [energy 0.454021] ------- [REQUEST 3/3 0/1]
N -t 82.567244 -n 1 -e 0.453579
N -t 82.567245 -n 2 -e 0.453579
N -t 82.567245 -n 0 -e 0.453579
N -t 82.567245 -n 4 -e 0.453579
r 82.567900303 _1_ MAC  --- 0 ARP 28 [0 ffffffff 3 806] [energy 0.453579] ------- [REQUEST 3/3 0/1]
s 82.568130303 _1_ MAC  --- 0 RTS 46 [52e 3 1 0] [energy 0.453579] 
N -t 82.568131 -n 0 -e 0.453469
N -t 82.568131 -n 3 -e 0.453517
N -t 82.568131 -n 2 -e 0.453469
N -t 82.568131 -n 4 -e 0.453469
r 82.568498932 _3_ MAC  --- 0 RTS 46 [52e 3 1 0] [energy 0.453517] 
s 82.568508932 _3_ MAC  --- 0 CTS 40 [3e4 1 0 0] [energy 0.453517] 
N -t 82.568510 -n 1 -e 0.453262
N -t 82.568510 -n 2 -e 0.453373
N -t 82.568510 -n 0 -e 0.453373
N -t 82.568510 -n 4 -e 0.453373
r 82.568829562 _1_ MAC  --- 0 CTS 40 [3e4 1 0 0] [energy 0.453262] 
s 82.568839562 _1_ MAC  --- 0 ARP 82 [14a 3 1 806] [energy 0.453262] ------- [REPLY 1/1 3/3]
N -t 82.568840 -n 0 -e 0.453176
N -t 82.568840 -n 3 -e 0.453128
N -t 82.568840 -n 2 -e 0.453176
N -t 82.568840 -n 4 -e 0.453176
r 82.569496191 _3_ MAC  --- 0 ARP 28 [14a 3 1 806] [energy 0.453128] ------- [REPLY 1/1 3/3]
s 82.569506191 _3_ MAC  --- 0 ACK 40 [0 1 0 0] [energy 0.453128] 
N -t 82.569507 -n 1 -e 0.452773
N -t 82.569507 -n 2 -e 0.453080
N -t 82.569507 -n 0 -e 0.453080
N -t 82.569507 -n 4 -e 0.453080
r 82.569826820 _1_ MAC  --- 0 ACK 40 [0 1 0 0] [energy 0.452773] 
s 82.570236191 _3_ MAC  --- 0 RTS 46 [5ae 1 3 0] [energy 0.452936] 
N -t 82.570237 -n 1 -e 0.452662
N -t 82.570237 -n 2 -e 0.452970
N -t 82.570237 -n 0 -e 0.452970
N -t 82.570237 -n 4 -e 0.452970
r 82.570604820 _1_ MAC  --- 0 RTS 46 [5ae 1 3 0] [energy 0.452662] 
s 82.570614820 _1_ MAC  --- 0 CTS 40 [464 3 0 0] [energy 0.452662] 
N -t 82.570615 -n 0 -e 0.452874
N -t 82.570615 -n 3 -e 0.452619
N -t 82.570616 -n 2 -e 0.452874
N -t 82.570616 -n 4 -e 0.452874
r 82.570935449 _3_ MAC  --- 0 CTS 40 [464 3 0 0] [energy 0.452619] 
s 82.570945449 _3_ MAC  --- 0 AODV 98 [14a 1 3 800] [energy 0.452619] ------- [3:255 2:255 30 1] [0x4 1 [3 4] 10.000000] (REPLY)
N -t 82.570946 -n 1 -e 0.452235
N -t 82.570947 -n 2 -e 0.452638
N -t 82.570947 -n 0 -e 0.452638
N -t 82.570947 -n 4 -e 0.452638
r 82.571730078 _1_ MAC  --- 0 AODV 44 [14a 1 3 800] [energy 0.452235] ------- [3:255 2:255 30 1] [0x4 1 [3 4] 10.000000] (REPLY)
s 82.571740078 _1_ MAC  --- 0 ACK 40 [0 3 0 0] [energy 0.452235] 
N -t 82.571741 -n 0 -e 0.452542
N -t 82.571741 -n 3 -e 0.452053
N -t 82.571741 -n 2 -e 0.452542
N -t 82.571741 -n 4 -e 0.452542
r 82.572060707 _3_ MAC  --- 0 ACK 40 [0 3 0 0] [energy 0.452053] 
s 82.572470078 _1_ MAC  --- 0 ARP 82 [0 ffffffff 1 806] [energy 0.452043] ------- [REQUEST 1/1 0/2]
N -t 82.572471 -n 0 -e 0.452346
N -t 82.572471 -n 3 -e 0.451856
N -t 82.572471 -n 2 -e 0.452346
N -t 82.572471 -n 4 -e 0.452346
r 82.573126668 _0_ MAC  --- 0 ARP 28 [0 ffffffff 1 806] [energy 0.452346] ------- [REQUEST 1/1 0/2]
r 82.573126707 _3_ MAC  --- 0 ARP 28 [0 ffffffff 1 806] [energy 0.451856] ------- [REQUEST 1/1 0/2]
r 82.573126822 _2_ MAC  --- 0 ARP 28 [0 ffffffff 1 806] [energy 0.452346] ------- [REQUEST 1/1 0/2]
s 82.573661822 _2_ MAC  --- 0 RTS 46 [52e 1 2 0] [energy 0.452346] 
N -t 82.573662 -n 4 -e 0.452235
N -t 82.573662 -n 0 -e 0.452235
N -t 82.573663 -n 1 -e 0.451539
N -t 82.573663 -n 3 -e 0.451746
r 82.574030567 _1_ MAC  --- 0 RTS 46 [52e 1 2 0] [energy 0.451539] 
s 82.574040567 _1_ MAC  --- 0 CTS 40 [3e4 2 0 0] [energy 0.451539] 
N -t 82.574041 -n 0 -e 0.452139
N -t 82.574041 -n 3 -e 0.451650
N -t 82.574041 -n 2 -e 0.452029
N -t 82.574042 -n 4 -e 0.452139
r 82.574361311 _2_ MAC  --- 0 CTS 40 [3e4 2 0 0] [energy 0.452029] 
s 82.574371311 _2_ MAC  --- 0 ARP 82 [14a 1 2 806] [energy 0.452029] ------- [REPLY 2/2 1/1]
N -t 82.574372 -n 4 -e 0.451942
N -t 82.574372 -n 0 -e 0.451942
N -t 82.574372 -n 1 -e 0.451150
N -t 82.574372 -n 3 -e 0.451453
r 82.575028055 _1_ MAC  --- 0 ARP 28 [14a 1 2 806] [energy 0.451150] ------- [REPLY 2/2 1/1]
s 82.575038055 _1_ MAC  --- 0 ACK 40 [0 2 0 0] [energy 0.451150] 
N -t 82.575039 -n 0 -e 0.451846
N -t 82.575039 -n 3 -e 0.451357
N -t 82.575039 -n 2 -e 0.451539
N -t 82.575039 -n 4 -e 0.451846
r 82.575358800 _2_ MAC  --- 0 ACK 40 [0 2 0 0] [energy 0.451539] 
s 82.575748055 _1_ MAC  --- 0 RTS 46 [5ae 2 1 0] [energy 0.450958] 
N -t 82.575749 -n 0 -e 0.451736
N -t 82.575749 -n 3 -e 0.451246
N -t 82.575749 -n 2 -e 0.451429
N -t 82.575749 -n 4 -e 0.451736
r 82.576116800 _2_ MAC  --- 0 RTS 46 [5ae 2 1 0] [energy 0.451429] 
s 82.576126800 _2_ MAC  --- 0 CTS 40 [464 1 0 0] [energy 0.451429] 
N -t 82.576127 -n 4 -e 0.451640
N -t 82.576127 -n 0 -e 0.451640
N -t 82.576128 -n 1 -e 0.450642
N -t 82.576128 -n 3 -e 0.451150
r 82.576447544 _1_ MAC  --- 0 CTS 40 [464 1 0 0] [energy 0.450642] 
s 82.576457544 _1_ MAC  --- 0 AODV 98 [14a 2 1 800] [energy 0.450642] ------- [3:255 2:255 29 2] [0x4 2 [3 4] 10.000000] (REPLY)
N -t 82.576458 -n 0 -e 0.451405
N -t 82.576458 -n 3 -e 0.450915
N -t 82.576458 -n 2 -e 0.451002
N -t 82.576458 -n 4 -e 0.451405
r 82.577242288 _2_ MAC  --- 0 AODV 44 [14a 2 1 800] [energy 0.451002] ------- [3:255 2:255 29 2] [0x4 2 [3 4] 10.000000] (REPLY)
s 82.577252288 _2_ MAC  --- 0 ACK 40 [0 1 0 0] [energy 0.451002] 
N -t 82.577252 -n 4 -e 0.451309
N -t 82.577253 -n 0 -e 0.451309
N -t 82.577253 -n 1 -e 0.450075
N -t 82.577253 -n 3 -e 0.450819
r 82.577573033 _1_ MAC  --- 0 ACK 40 [0 1 0 0] [energy 0.450075] 
s 82.577822288 _2_ MAC  --- 0 RTS 46 [14ee 1 2 0] [energy 0.450810] 
N -t 82.577822 -n 4 -e 0.451198
N -t 82.577823 -n 0 -e 0.451198
N -t 82.577823 -n 1 -e 0.449965
N -t 82.577823 -n 3 -e 0.450709
r 82.578191033 _1_ MAC  --- 0 RTS 46 [14ee 1 2 0] [energy 0.449965] 
s 82.578201033 _1_ MAC  --- 0 CTS 40 [13a4 2 0 0] [energy 0.449965] 
N -t 82.578202 -n 0 -e 0.451102
N -t 82.578202 -n 3 -e 0.450613
N -t 82.578202 -n 2 -e 0.450493
N -t 82.578202 -n 4 -e 0.451102
r 82.578521777 _2_ MAC  --- 0 CTS 40 [13a4 2 0 0] [energy 0.450493] 
s 82.578531777 _2_ MAC  --- 0 cbr 586 [14a 1 2 800] [energy 0.450493] ------- [2:0 3:0 30 1] [0] 0 2
N -t 82.578532 -n 4 -e 0.449696
N -t 82.578532 -n 0 -e 0.449696
N -t 82.578533 -n 1 -e 0.448366
N -t 82.578533 -n 3 -e 0.449206
r 82.583220521 _1_ MAC  --- 0 cbr 532 [14a 1 2 800] [energy 0.448366] ------- [2:0 3:0 30 1] [0] 1 2
s 82.583230521 _1_ MAC  --- 0 ACK 40 [0 2 0 0] [energy 0.448366] 
N -t 82.583231 -n 0 -e 0.449600
N -t 82.583231 -n 3 -e 0.449110
N -t 82.583231 -n 2 -e 0.447584
N -t 82.583231 -n 4 -e 0.449600
r 82.583551266 _2_ MAC  --- 0 ACK 40 [0 2 0 0] [energy 0.447584] 
s 82.583640521 _1_ MAC  --- 0 RTS 46 [14ee 3 1 0] [energy 0.448174] 
N -t 82.583641 -n 0 -e 0.449490
N -t 82.583641 -n 3 -e 0.449000
N -t 82.583641 -n 2 -e 0.447474
N -t 82.583641 -n 4 -e 0.449490
r 82.584009150 _3_ MAC  --- 0 RTS 46 [14ee 3 1 0] [energy 0.449000] 
s 82.584019150 _3_ MAC  --- 0 CTS 40 [13a4 1 0 0] [energy 0.449000] 
N -t 82.584020 -n 1 -e 0.447858
N -t 82.584020 -n 2 -e 0.447378
N -t 82.584020 -n 0 -e 0.449394
N -t 82.584020 -n 4 -e 0.449394
r 82.584339779 _1_ MAC  --- 0 CTS 40 [13a4 1 0 0] [energy 0.447858] 
s 82.584349779 _1_ MAC  --- 0 cbr 586 [14a 3 1 800] [energy 0.447858] ------- [2:0 3:0 29 3] [0] 1 2
N -t 82.584350 -n 0 -e 0.447987
N -t 82.584350 -n 3 -e 0.447402
N -t 82.584351 -n 2 -e 0.445971
N -t 82.584351 -n 4 -e 0.447987
r 82.589038408 _3_ MAC  --- 0 cbr 532 [14a 3 1 800] [energy 0.447402] ------- [2:0 3:0 29 3] [0] 2 2
s 82.589048408 _3_ MAC  --- 0 ACK 40 [0 1 0 0] [energy 0.447402] 
N -t 82.589049 -n 1 -e 0.444949
N -t 82.589049 -n 2 -e 0.445875
N -t 82.589049 -n 0 -e 0.447891
N -t 82.589050 -n 4 -e 0.447891
r 82.589063408 _3_ AGT  --- 0 cbr 532 [14a 3 1 800] [energy 0.447210] ------- [2:0 3:0 29 3] [0] 2 2
r 82.589369038 _1_ MAC  --- 0 ACK 40 [0 1 0 0] [energy 0.444949] 
s 83.557702901 _2_ AGT  --- 1 cbr 512 [0 0 0 0] [energy 0.445875] ------- [2:0 3:0 32 0] [1] 0 2
s 83.557957901 _2_ MAC  --- 0 RTS 46 [14ee 1 2 0] [energy 0.445875] 
N -t 83.557958 -n 4 -e 0.447781
N -t 83.557958 -n 0 -e 0.447781
N -t 83.557959 -n 1 -e 0.444838
N -t 83.557959 -n 3 -e 0.447099
r 83.558326645 _1_ MAC  --- 0 RTS 46 [14ee 1 2 0] [energy 0.444838] 
s 83.558336645 _1_ MAC  --- 0 CTS 40 [13a4 2 0 0] [energy 0.444838] 
N -t 83.558337 -n 0 -e 0.447685
N -t 83.558337 -n 3 -e 0.447003
N -t 83.558337 -n 2 -e 0.445558
N -t 83.558338 -n 4 -e 0.447685
r 83.558657389 _2_ MAC  --- 0 CTS 40 [13a4 2 0 0] [energy 0.445558] 
s 83.558667389 _2_ MAC  --- 1 cbr 586 [14a 1 2 800] [energy 0.445558] ------- [2:0 3:0 30 1] [1] 0 2
N -t 83.558668 -n 4 -e 0.446278
N -t 83.558668 -n 0 -e 0.446278
N -t 83.558668 -n 1 -e 0.443240
N -t 83.558668 -n 3 -e 0.445597
r 83.563356134 _1_ MAC  --- 1 cbr 532 [14a 1 2 800] [energy 0.443240] ------- [2:0 3:0 30 1] [1] 1 2
s 83.563366134 _1_ MAC  --- 0 ACK 40 [0 2 0 0] [energy 0.443240] 
N -t 83.563367 -n 0 -e 0.446182
N -t 83.563367 -n 3 -e 0.445501
N -t 83.563367 -n 2 -e 0.442650
N -t 83.563367 -n 4 -e 0.446182
r 83.563686878 _2_ MAC  --- 0 ACK 40 [0 2 0 0] [energy 0.442650] 
s 83.564316134 _1_ MAC  --- 0 RTS 46 [14ee 3 1 0] [energy 0.443048] 
N -t 83.564317 -n 0 -e 0.446072
N -t 83.564317 -n 3 -e 0.445390
N -t 83.564317 -n 2 -e 0.442539
N -t 83.564317 -n 4 -e 0.446072
r 83.564684763 _3_ MAC  --- 0 RTS 46 [14ee 3 1 0] [energy 0.445390] 
s 83.564694763 _3_ MAC  --- 0 CTS 40 [13a4 1 0 0] [energy 0.445390] 
N -t 83.564695 -n 1 -e 0.442731
N -t 83.564696 -n 2 -e 0.442443
N -t 83.564696 -n 0 -e 0.445976
N -t 83.564696 -n 4 -e 0.445976
r 83.565015392 _1_ MAC  --- 0 CTS 40 [13a4 1 0 0] [energy 0.442731] 
s 83.565025392 _1_ MAC  --- 1 cbr 586 [14a 3 1 800] [energy 0.442731] ------- [2:0 3:0 29 3] [1] 1 2
N -t 83.565026 -n 0 -e 0.444570
N -t 83.565026 -n 3 -e 0.443792
N -t 83.565026 -n 2 -e 0.441037
N -t 83.565026 -n 4 -e 0.444570
r 83.569714021 _3_ MAC  --- 1 cbr 532 [14a 3 1 800] [energy 0.443792] ------- [2:0 3:0 29 3] [1] 2 2
s 83.569724021 _3_ MAC  --- 0 ACK 40 [0 1 0 0] [energy 0.443792] 
N -t 83.569725 -n 1 -e 0.439822
N -t 83.569725 -n 2 -e 0.440941
N -t 83.569725 -n 0 -e 0.444474
N -t 83.569725 -n 4 -e 0.444474
r 83.569739021 _3_ AGT  --- 1 cbr 532 [14a 3 1 800] [energy 0.443600] ------- [2:0 3:0 29 3] [1] 2 2
r 83.570044650 _1_ MAC  --- 0 ACK 40 [0 1 0 0] [energy 0.439822] 
s 85.489934773 _2_ AGT  --- 2 cbr 512 [0 0 0 0] [energy 0.440941] ------- [2:0 3:0 32 0] [2] 0 2
s 85.490049773 _2_ MAC  --- 0 RTS 46 [14ee 1 2 0] [energy 0.440941] 
N -t 85.490050 -n 4 -e 0.444363
N -t 85.490050 -n 0 -e 0.444363
N -t 85.490051 -n 1 -e 0.439712
N -t 85.490051 -n 3 -e 0.443490
r 85.490418518 _1_ MAC  --- 0 RTS 46 [14ee 1 2 0] [energy 0.439712] 
s 85.490428518 _1_ MAC  --- 0 CTS 40 [13a4 2 0 0] [energy 0.439712] 
N -t 85.490429 -n 0 -e 0.444267
N -t 85.490429 -n 3 -e 0.443394
N -t 85.490429 -n 2 -e 0.440624
N -t 85.490429 -n 4 -e 0.444267
r 85.490749262 _2_ MAC  --- 0 CTS 40 [13a4 2 0 0] [energy 0.440624] 
s 85.490759262 _2_ MAC  --- 2 cbr 586 [14a 1 2 800] [energy 0.440624] ------- [2:0 3:0 30 1] [2] 0 2
N -t 85.490759 -n 4 -e 0.442861
N -t 85.490760 -n 0 -e 0.442861
N -t 85.490760 -n 1 -e 0.438114
N -t 85.490760 -n 3 -e 0.441987
r 85.495448006 _1_ MAC  --- 2 cbr 532 [14a 1 2 800] [energy 0.438114] ------- [2:0 3:0 30 1] [2] 1 2
s 85.495458006 _1_ MAC  --- 0 ACK 40 [0 2 0 0] [energy 0.438114] 
N -t 85.495459 -n 0 -e 0.442765
N -t 85.495459 -n 3 -e 0.441891
N -t 85.495459 -n 2 -e 0.437715
N -t 85.495459 -n 4 -e 0.442765
r 85.495778751 _2_ MAC  --- 0 ACK 40 [0 2 0 0] [energy 0.437715] 
s 85.496128006 _1_ MAC  --- 0 RTS 46 [14ee 3 1 0] [energy 0.437922] 
N -t 85.496129 -n 0 -e 0.442654
N -t 85.496129 -n 3 -e 0.441781
N -t 85.496129 -n 2 -e 0.437605
N -t 85.496129 -n 4 -e 0.442654
r 85.496496636 _3_ MAC  --- 0 RTS 46 [14ee 3 1 0] [energy 0.441781] 
s 85.496506636 _3_ MAC  --- 0 CTS 40 [13a4 1 0 0] [energy 0.441781] 
N -t 85.496507 -n 1 -e 0.437605
N -t 85.496508 -n 2 -e 0.437509
N -t 85.496508 -n 0 -e 0.442558
N -t 85.496508 -n 4 -e 0.442558
r 85.496827265 _1_ MAC  --- 0 CTS 40 [13a4 1 0 0] [energy 0.437605] 
s 85.496837265 _1_ MAC  --- 2 cbr 586 [14a 3 1 800] [energy 0.437605] ------- [2:0 3:0 29 3] [2] 1 2
N -t 85.496838 -n 0 -e 0.441152
N -t 85.496838 -n 3 -e 0.440182
N -t 85.496838 -n 2 -e 0.436102
N -t 85.496838 -n 4 -e 0.441152
r 85.501525894 _3_ MAC  --- 2 cbr 532 [14a 3 1 800] [energy 0.440182] ------- [2:0 3:0 29 3] [2] 2 2
s 85.501535894 _3_ MAC  --- 0 ACK 40 [0 1 0 0] [energy 0.440182] 
N -t 85.501537 -n 1 -e 0.434696
N -t 85.501537 -n 2 -e 0.436006
N -t 85.501537 -n 0 -e 0.441056
N -t 85.501537 -n 4 -e 0.441056
r 85.501550894 _3_ AGT  --- 2 cbr 532 [14a 3 1 800] [energy 0.439990] ------- [2:0 3:0 29 3] [2] 2 2
r 85.501856523 _1_ MAC  --- 0 ACK 40 [0 1 0 0] [energy 0.434696] 
s 86.972386029 _2_ AGT  --- 3 cbr 512 [0 0 0 0] [energy 0.436006] ------- [2:0 3:0 32 0] [3] 0 2
s 86.972741029 _2_ MAC  --- 0 RTS 46 [14ee 1 2 0] [energy 0.436006] 
N -t 86.972741 -n 4 -e 0.440946
N -t 86.972741 -n 0 -e 0.440946
N -t 86.972742 -n 1 -e 0.434586
N -t 86.972742 -n 3 -e 0.439880
r 86.973109774 _1_ MAC  --- 0 RTS 46 [14ee 1 2 0] [energy 0.434586] 
s 86.973119774 _1_ MAC  --- 0 CTS 40 [13a4 2 0 0] [energy 0.434586] 
N -t 86.973120 -n 0 -e 0.440850
N -t 86.973120 -n 3 -e 0.439784
N -t 86.973121 -n 2 -e 0.435690
N -t 86.973121 -n 4 -e 0.440850
r 86.973440518 _2_ MAC  --- 0 CTS 40 [13a4 2 0 0] [energy 0.435690] 
s 86.973450518 _2_ MAC  --- 3 cbr 586 [14a 1 2 800] [energy 0.435690] ------- [2:0 3:0 30 1] [3] 0 2
N -t 86.973451 -n 4 -e 0.439443
N -t 86.973451 -n 0 -e 0.439443
N -t 86.973451 -n 1 -e 0.432987
N -t 86.973452 -n 3 -e 0.438378
r 86.978139262 _1_ MAC  --- 3 cbr 532 [14a 1 2 800] [energy 0.432987] ------- [2:0 3:0 30 1] [3] 1 2
s 86.978149262 _1_ MAC  --- 0 ACK 40 [0 2 0 0] [energy 0.432987] 
N -t 86.978150 -n 0 -e 0.439347
N -t 86.978150 -n 3 -e 0.438282
N -t 86.978150 -n 2 -e 0.432781
N -t 86.978150 -n 4 -e 0.439347
r 86.978470007 _2_ MAC  --- 0 ACK 40 [0 2 0 0] [energy 0.432781] 
s 86.978719262 _1_ MAC  --- 0 RTS 46 [14ee 3 1 0] [energy 0.432795] 
N -t 86.978720 -n 0 -e 0.439237
N -t 86.978720 -n 3 -e 0.438171
N -t 86.978720 -n 2 -e 0.432670
N -t 86.978720 -n 4 -e 0.439237
r 86.979087892 _3_ MAC  --- 0 RTS 46 [14ee 3 1 0] [energy 0.438171] 
s 86.979097892 _3_ MAC  --- 0 CTS 40 [13a4 1 0 0] [energy 0.438171] 
N -t 86.979099 -n 1 -e 0.432478
N -t 86.979099 -n 2 -e 0.432574
N -t 86.979099 -n 0 -e 0.439141
N -t 86.979099 -n 4 -e 0.439141
r 86.979418521 _1_ MAC  --- 0 CTS 40 [13a4 1 0 0] [energy 0.432478] 
s 86.979428521 _1_ MAC  --- 3 cbr 586 [14a 3 1 800] [energy 0.432478] ------- [2:0 3:0 29 3] [3] 1 2
N -t 86.979429 -n 0 -e 0.437734
N -t 86.979429 -n 3 -e 0.436573
N -t 86.979429 -n 2 -e 0.431168
N -t 86.979429 -n 4 -e 0.437734
r 86.984117150 _3_ MAC  --- 3 cbr 532 [14a 3 1 800] [energy 0.436573] ------- [2:0 3:0 29 3] [3] 2 2
s 86.984127150 _3_ MAC  --- 0 ACK 40 [0 1 0 0] [energy 0.436573] 
N -t 86.984128 -n 1 -e 0.429570
N -t 86.984128 -n 2 -e 0.431072
N -t 86.984128 -n 0 -e 0.437638
N -t 86.984128 -n 4 -e 0.437638
r 86.984142150 _3_ AGT  --- 3 cbr 532 [14a 3 1 800] [energy 0.436381] ------- [2:0 3:0 29 3] [3] 2 2
r 86.984447779 _1_ MAC  --- 0 ACK 40 [0 1 0 0] [energy 0.429570] 
s 88.783424184 _2_ AGT  --- 4 cbr 512 [0 0 0 0] [energy 0.431072] ------- [2:0 3:0 32 0] [4] 0 2
s 88.783699184 _2_ MAC  --- 0 RTS 46 [14ee 1 2 0] [energy 0.431072] 
N -t 88.783699 -n 4 -e 0.437528
N -t 88.783699 -n 0 -e 0.437528
N -t 88.783700 -n 1 -e 0.429459
N -t 88.783700 -n 3 -e 0.436270
r 88.784067928 _1_ MAC  --- 0 RTS 46 [14ee 1 2 0] [energy 0.429459] 
s 88.784077928 _1_ MAC  --- 0 CTS 40 [13a4 2 0 0] [energy 0.429459] 
N -t 88.784079 -n 0 -e 0.437432
N -t 88.784079 -n 3 -e 0.436174
N -t 88.784079 -n 2 -e 0.430755
N -t 88.784079 -n 4 -e 0.437432
r 88.784398672 _2_ MAC  --- 0 CTS 40 [13a4 2 0 0] [energy 0.430755] 
s 88.784408672 _2_ MAC  --- 4 cbr 586 [14a 1 2 800] [energy 0.430755] ------- [2:0 3:0 30 1] [4] 0 2
N -t 88.784409 -n 4 -e 0.436026
N -t 88.784409 -n 0 -e 0.436026
N -t 88.784409 -n 1 -e 0.427861
N -t 88.784410 -n 3 -e 0.434768
r 88.789097417 _1_ MAC  --- 4 cbr 532 [14a 1 2 800] [energy 0.427861] ------- [2:0 3:0 30 1] [4] 1 2
s 88.789107417 _1_ MAC  --- 0 ACK 40 [0 2 0 0] [energy 0.427861] 
N -t 88.789108 -n 0 -e 0.435930
N -t 88.789108 -n 3 -e 0.434672
N -t 88.789108 -n 2 -e 0.427846
N -t 88.789108 -n 4 -e 0.435930
r 88.789428161 _2_ MAC  --- 0 ACK 40 [0 2 0 0] [energy 0.427846] 
s 88.790057417 _1_ MAC  --- 0 RTS 46 [14ee 3 1 0] [energy 0.427669] 
N -t 88.790058 -n 0 -e 0.435819
N -t 88.790058 -n 3 -e 0.434562
N -t 88.790058 -n 2 -e 0.427736
N -t 88.790058 -n 4 -e 0.435819
r 88.790426046 _3_ MAC  --- 0 RTS 46 [14ee 3 1 0] [energy 0.434562] 
s 88.790436046 _3_ MAC  --- 0 CTS 40 [13a4 1 0 0] [energy 0.434562] 
N -t 88.790437 -n 1 -e 0.427352
N -t 88.790437 -n 2 -e 0.427640
N -t 88.790437 -n 0 -e 0.435723
N -t 88.790437 -n 4 -e 0.435723
r 88.790756675 _1_ MAC  --- 0 CTS 40 [13a4 1 0 0] [energy 0.427352] 
s 88.790766675 _1_ MAC  --- 4 cbr 586 [14a 3 1 800] [energy 0.427352] ------- [2:0 3:0 29 3] [4] 1 2
N -t 88.790767 -n 0 -e 0.434317
N -t 88.790767 -n 3 -e 0.432963
N -t 88.790767 -n 2 -e 0.426234
N -t 88.790768 -n 4 -e 0.434317
r 88.795455304 _3_ MAC  --- 4 cbr 532 [14a 3 1 800] [energy 0.432963] ------- [2:0 3:0 29 3] [4] 2 2
s 88.795465304 _3_ MAC  --- 0 ACK 40 [0 1 0 0] [energy 0.432963] 
N -t 88.795466 -n 1 -e 0.424443
N -t 88.795466 -n 2 -e 0.426138
N -t 88.795466 -n 0 -e 0.434221
N -t 88.795467 -n 4 -e 0.434221
r 88.795480304 _3_ AGT  --- 4 cbr 532 [14a 3 1 800] [energy 0.432771] ------- [2:0 3:0 29 3] [4] 2 2
r 88.795785933 _1_ MAC  --- 0 ACK 40 [0 1 0 0] [energy 0.424443] 
s 91.675954090 _2_ AGT  --- 5 cbr 512 [0 0 0 0] [energy 0.426138] ------- [2:0 3:0 32 0] [5] 0 2
s 91.676529090 _2_ MAC  --- 0 RTS 46 [14ee 1 2 0] [energy 0.426138] 
N -t 91.676529 -n 4 -e 0.434110
N -t 91.676529 -n 0 -e 0.434110
N -t 91.676530 -n 1 -e 0.424333
N -t 91.676530 -n 3 -e 0.432661
r 91.676897835 _1_ MAC  --- 0 RTS 46 [14ee 1 2 0] [energy 0.424333] 
s 91.676907835 _1_ MAC  --- 0 CTS 40 [13a4 2 0 0] [energy 0.424333] 
N -t 91.676908 -n 0 -e 0.434014
N -t 91.676908 -n 3 -e 0.432565
N -t 91.676909 -n 2 -e 0.425821
N -t 91.676909 -n 4 -e 0.434014
r 91.677228579 _2_ MAC  --- 0 CTS 40 [13a4 2 0 0] [energy 0.425821] 
s 91.677238579 _2_ MAC  --- 5 cbr 586 [14a 1 2 800] [energy 0.425821] ------- [2:0 3:0 30 1] [5] 0 2
N -t 91.677239 -n 4 -e 0.432608
N -t 91.677239 -n 0 -e 0.432608
N -t 91.677239 -n 1 -e 0.422734
N -t 91.677240 -n 3 -e 0.431158
r 91.681927323 _1_ MAC  --- 5 cbr 532 [14a 1 2 800] [energy 0.422734] ------- [2:0 3:0 30 1] [5] 1 2
s 91.681937323 _1_ MAC  --- 0 ACK 40 [0 2 0 0] [energy 0.422734] 
N -t 91.681938 -n 0 -e 0.432512
N -t 91.681938 -n 3 -e 0.431062
N -t 91.681938 -n 2 -e 0.422912
N -t 91.681938 -n 4 -e 0.432512
r 91.682258068 _2_ MAC  --- 0 ACK 40 [0 2 0 0] [energy 0.422912] 
s 91.682587323 _1_ MAC  --- 0 RTS 46 [14ee 3 1 0] [energy 0.422542] 
N -t 91.682588 -n 0 -e 0.432402
N -t 91.682588 -n 3 -e 0.430952
N -t 91.682588 -n 2 -e 0.422802
N -t 91.682588 -n 4 -e 0.432402
r 91.682955952 _3_ MAC  --- 0 RTS 46 [14ee 3 1 0] [energy 0.430952] 
s 91.682965952 _3_ MAC  --- 0 CTS 40 [13a4 1 0 0] [energy 0.430952] 
N -t 91.682967 -n 1 -e 0.422226
N -t 91.682967 -n 2 -e 0.422706
N -t 91.682967 -n 0 -e 0.432306
N -t 91.682967 -n 4 -e 0.432306
r 91.683286582 _1_ MAC  --- 0 CTS 40 [13a4 1 0 0] [energy 0.422226] 
s 91.683296582 _1_ MAC  --- 5 cbr 586 [14a 3 1 800] [energy 0.422226] ------- [2:0 3:0 29 3] [5] 1 2
N -t 91.683297 -n 0 -e 0.430899
N -t 91.683297 -n 3 -e 0.429354
N -t 91.683297 -n 2 -e 0.421299
N -t 91.683298 -n 4 -e 0.430899
r 91.687985211 _3_ MAC  --- 5 cbr 532 [14a 3 1 800] [energy 0.429354] ------- [2:0 3:0 29 3] [5] 2 2
s 91.687995211 _3_ MAC  --- 0 ACK 40 [0 1 0 0] [energy 0.429354] 
N -t 91.687996 -n 1 -e 0.419317
N -t 91.687996 -n 2 -e 0.421203
N -t 91.687996 -n 0 -e 0.430803
N -t 91.687996 -n 4 -e 0.430803
r 91.688010211 _3_ AGT  --- 5 cbr 532 [14a 3 1 800] [energy 0.429162] ------- [2:0 3:0 29 3] [5] 2 2
r 91.688315840 _1_ MAC  --- 0 ACK 40 [0 1 0 0] [energy 0.419317] 
s 93.866008866 _2_ AGT  --- 6 cbr 512 [0 0 0 0] [energy 0.421203] ------- [2:0 3:0 32 0] [6] 0 2
s 93.866083866 _2_ MAC  --- 0 RTS 46 [14ee 1 2 0] [energy 0.421203] 
N -t 93.866084 -n 4 -e 0.430693
N -t 93.866084 -n 0 -e 0.430693
N -t 93.866085 -n 1 -e 0.419206
N -t 93.866085 -n 3 -e 0.429051
r 93.866452610 _1_ MAC  --- 0 RTS 46 [14ee 1 2 0] [energy 0.419206] 
s 93.866462610 _1_ MAC  --- 0 CTS 40 [13a4 2 0 0] [energy 0.419206] 
N -t 93.866463 -n 0 -e 0.430597
N -t 93.866463 -n 3 -e 0.428955
N -t 93.866463 -n 2 -e 0.420886
N -t 93.866464 -n 4 -e 0.430597
r 93.866783355 _2_ MAC  --- 0 CTS 40 [13a4 2 0 0] [energy 0.420886] 
s 93.866793355 _2_ MAC  --- 6 cbr 586 [14a 1 2 800] [energy 0.420886] ------- [2:0 3:0 30 1] [6] 0 2
N -t 93.866794 -n 4 -e 0.429190
N -t 93.866794 -n 0 -e 0.429190
N -t 93.866794 -n 1 -e 0.417608
N -t 93.866794 -n 3 -e 0.427549
r 93.871482099 _1_ MAC  --- 6 cbr 532 [14a 1 2 800] [energy 0.417608] ------- [2:0 3:0 30 1] [6] 1 2
s 93.871492099 _1_ MAC  --- 0 ACK 40 [0 2 0 0] [energy 0.417608] 
N -t 93.871493 -n 0 -e 0.429094
N -t 93.871493 -n 3 -e 0.427453
N -t 93.871493 -n 2 -e 0.417978
N -t 93.871493 -n 4 -e 0.429094
r 93.871812843 _2_ MAC  --- 0 ACK 40 [0 2 0 0] [energy 0.417978] 
s 93.872082099 _1_ MAC  --- 0 RTS 46 [14ee 3 1 0] [energy 0.417416] 
N -t 93.872083 -n 0 -e 0.428984
N -t 93.872083 -n 3 -e 0.427342
N -t 93.872083 -n 2 -e 0.417867
N -t 93.872083 -n 4 -e 0.428984
r 93.872450728 _3_ MAC  --- 0 RTS 46 [14ee 3 1 0] [energy 0.427342] 
s 93.872460728 _3_ MAC  --- 0 CTS 40 [13a4 1 0 0] [energy 0.427342] 
N -t 93.872461 -n 1 -e 0.417099
N -t 93.872462 -n 2 -e 0.417771
N -t 93.872462 -n 0 -e 0.428888
N -t 93.872462 -n 4 -e 0.428888
r 93.872781357 _1_ MAC  --- 0 CTS 40 [13a4 1 0 0] [energy 0.417099] 
s 93.872791357 _1_ MAC  --- 6 cbr 586 [14a 3 1 800] [energy 0.417099] ------- [2:0 3:0 29 3] [6] 1 2
N -t 93.872792 -n 0 -e 0.427482
N -t 93.872792 -n 3 -e 0.425744
N -t 93.872792 -n 2 -e 0.416365
N -t 93.872792 -n 4 -e 0.427482
r 93.877479986 _3_ MAC  --- 6 cbr 532 [14a 3 1 800] [energy 0.425744] ------- [2:0 3:0 29 3] [6] 2 2
s 93.877489986 _3_ MAC  --- 0 ACK 40 [0 1 0 0] [energy 0.425744] 
N -t 93.877491 -n 1 -e 0.414190
N -t 93.877491 -n 2 -e 0.416269
N -t 93.877491 -n 0 -e 0.427386
N -t 93.877491 -n 4 -e 0.427386
r 93.877504986 _3_ AGT  --- 6 cbr 532 [14a 3 1 800] [energy 0.425552] ------- [2:0 3:0 29 3] [6] 2 2
r 93.877810615 _1_ MAC  --- 0 ACK 40 [0 1 0 0] [energy 0.414190] 
s 96.263355319 _2_ AGT  --- 7 cbr 512 [0 0 0 0] [energy 0.416269] ------- [2:0 3:0 32 0] [7] 0 2
s 96.263510319 _2_ MAC  --- 0 RTS 46 [14ee 1 2 0] [energy 0.416269] 
N -t 96.263511 -n 4 -e 0.427275
N -t 96.263511 -n 0 -e 0.427275
N -t 96.263511 -n 1 -e 0.414080
N -t 96.263511 -n 3 -e 0.425442
r 96.263879063 _1_ MAC  --- 0 RTS 46 [14ee 1 2 0] [energy 0.414080] 
s 96.263889063 _1_ MAC  --- 0 CTS 40 [13a4 2 0 0] [energy 0.414080] 
N -t 96.263890 -n 0 -e 0.427179
N -t 96.263890 -n 3 -e 0.425346
N -t 96.263890 -n 2 -e 0.415952
N -t 96.263890 -n 4 -e 0.427179
r 96.264209808 _2_ MAC  --- 0 CTS 40 [13a4 2 0 0] [energy 0.415952] 
s 96.264219808 _2_ MAC  --- 7 cbr 586 [14a 1 2 800] [energy 0.415952] ------- [2:0 3:0 30 1] [7] 0 2
N -t 96.264220 -n 4 -e 0.425773
N -t 96.264220 -n 0 -e 0.425773
N -t 96.264221 -n 1 -e 0.412482
N -t 96.264221 -n 3 -e 0.423939
r 96.268908552 _1_ MAC  --- 7 cbr 532 [14a 1 2 800] [energy 0.412482] ------- [2:0 3:0 30 1] [7] 1 2
s 96.268918552 _1_ MAC  --- 0 ACK 40 [0 2 0 0] [energy 0.412482] 
N -t 96.268919 -n 0 -e 0.425677
N -t 96.268919 -n 3 -e 0.423843
N -t 96.268919 -n 2 -e 0.413043
N -t 96.268919 -n 4 -e 0.425677
r 96.269239296 _2_ MAC  --- 0 ACK 40 [0 2 0 0] [energy 0.413043] 
s 96.269588552 _1_ MAC  --- 0 RTS 46 [14ee 3 1 0] [energy 0.412290] 
N -t 96.269589 -n 0 -e 0.425566
N -t 96.269589 -n 3 -e 0.423733
N -t 96.269589 -n 2 -e 0.412933
N -t 96.269589 -n 4 -e 0.425566
r 96.269957181 _3_ MAC  --- 0 RTS 46 [14ee 3 1 0] [energy 0.423733] 
s 96.269967181 _3_ MAC  --- 0 CTS 40 [13a4 1 0 0] [energy 0.423733] 
N -t 96.269968 -n 1 -e 0.411973
N -t 96.269968 -n 2 -e 0.412837
N -t 96.269968 -n 0 -e 0.425470
N -t 96.269968 -n 4 -e 0.425470
r 96.270287810 _1_ MAC  --- 0 CTS 40 [13a4 1 0 0] [energy 0.411973] 
s 96.270297810 _1_ MAC  --- 7 cbr 586 [14a 3 1 800] [energy 0.411973] ------- [2:0 3:0 29 3] [7] 1 2
N -t 96.270298 -n 0 -e 0.424064
N -t 96.270298 -n 3 -e 0.422134
N -t 96.270299 -n 2 -e 0.411430
N -t 96.270299 -n 4 -e 0.424064
r 96.274986439 _3_ MAC  --- 7 cbr 532 [14a 3 1 800] [energy 0.422134] ------- [2:0 3:0 29 3] [7] 2 2
s 96.274996439 _3_ MAC  --- 0 ACK 40 [0 1 0 0] [energy 0.422134] 
N -t 96.274997 -n 1 -e 0.409064
N -t 96.274997 -n 2 -e 0.411334
N -t 96.274997 -n 0 -e 0.423968
N -t 96.274998 -n 4 -e 0.423968
r 96.275011439 _3_ AGT  --- 7 cbr 532 [14a 3 1 800] [energy 0.421942] ------- [2:0 3:0 29 3] [7] 2 2
r 96.275317068 _1_ MAC  --- 0 ACK 40 [0 1 0 0] [energy 0.409064] 
s 98.114729875 _2_ AGT  --- 8 cbr 512 [0 0 0 0] [energy 0.411334] ------- [2:0 3:0 32 0] [8] 0 2
s 98.115084875 _2_ MAC  --- 0 RTS 46 [14ee 1 2 0] [energy 0.411334] 
N -t 98.115085 -n 4 -e 0.423858
N -t 98.115085 -n 0 -e 0.423858
N -t 98.115086 -n 1 -e 0.408954
N -t 98.115086 -n 3 -e 0.421832
r 98.115453620 _1_ MAC  --- 0 RTS 46 [14ee 1 2 0] [energy 0.408954] 
s 98.115463620 _1_ MAC  --- 0 CTS 40 [13a4 2 0 0] [energy 0.408954] 
N -t 98.115464 -n 0 -e 0.423762
N -t 98.115464 -n 3 -e 0.421736
N -t 98.115464 -n 2 -e 0.411018
N -t 98.115465 -n 4 -e 0.423762
r 98.115784364 _2_ MAC  --- 0 CTS 40 [13a4 2 0 0] [energy 0.411018] 
s 98.115794364 _2_ MAC  --- 8 cbr 586 [14a 1 2 800] [energy 0.411018] ------- [2:0 3:0 30 1] [8] 0 2
N -t 98.115795 -n 4 -e 0.422355
N -t 98.115795 -n 0 -e 0.422355
N -t 98.115795 -n 1 -e 0.407355
N -t 98.115795 -n 3 -e 0.420330
r 98.120483108 _1_ MAC  --- 8 cbr 532 [14a 1 2 800] [energy 0.407355] ------- [2:0 3:0 30 1] [8] 1 2
s 98.120493108 _1_ MAC  --- 0 ACK 40 [0 2 0 0] [energy 0.407355] 
N -t 98.120494 -n 0 -e 0.422259
N -t 98.120494 -n 3 -e 0.420234
N -t 98.120494 -n 2 -e 0.408109
N -t 98.120494 -n 4 -e 0.422259
r 98.120813853 _2_ MAC  --- 0 ACK 40 [0 2 0 0] [energy 0.408109] 
s 98.120883108 _1_ MAC  --- 0 RTS 46 [14ee 3 1 0] [energy 0.407163] 
N -t 98.120884 -n 0 -e 0.422149
N -t 98.120884 -n 3 -e 0.420123
N -t 98.120884 -n 2 -e 0.407998
N -t 98.120884 -n 4 -e 0.422149
r 98.121251738 _3_ MAC  --- 0 RTS 46 [14ee 3 1 0] [energy 0.420123] 
s 98.121261738 _3_ MAC  --- 0 CTS 40 [13a4 1 0 0] [energy 0.420123] 
N -t 98.121262 -n 1 -e 0.406846
N -t 98.121263 -n 2 -e 0.407902
N -t 98.121263 -n 0 -e 0.422053
N -t 98.121263 -n 4 -e 0.422053
r 98.121582367 _1_ MAC  --- 0 CTS 40 [13a4 1 0 0] [energy 0.406846] 
s 98.121592367 _1_ MAC  --- 8 cbr 586 [14a 3 1 800] [energy 0.406846] ------- [2:0 3:0 29 3] [8] 1 2
N -t 98.121593 -n 0 -e 0.420646
N -t 98.121593 -n 3 -e 0.418525
N -t 98.121593 -n 2 -e 0.406496
N -t 98.121593 -n 4 -e 0.420646
r 98.126280996 _3_ MAC  --- 8 cbr 532 [14a 3 1 800] [energy 0.418525] ------- [2:0 3:0 29 3] [8] 2 2
s 98.126290996 _3_ MAC  --- 0 ACK 40 [0 1 0 0] [energy 0.418525] 
N -t 98.126292 -n 1 -e 0.403938
N -t 98.126292 -n 2 -e 0.406400
N -t 98.126292 -n 0 -e 0.420550
N -t 98.126292 -n 4 -e 0.420550
r 98.126305996 _3_ AGT  --- 8 cbr 532 [14a 3 1 800] [energy 0.418333] ------- [2:0 3:0 29 3] [8] 2 2
r 98.126611625 _1_ MAC  --- 0 ACK 40 [0 1 0 0] [energy 0.403938] 