s 0.000001000 _0_ AGT  --- 1190071889 diffusion 0 [0 0 0 0] ------- [0:254 0:255 32 0] 
r 0.000001000 _0_ RTR  --- 1190071889 diffusion 0 [0 0 0 0] ------- [0:254 0:255 32 0] 
s 0.000001000 _1_ AGT  --- 528599277 diffusion 0 [0 0 0 0] ------- [1:254 1:255 32 0] 
r 0.000001000 _1_ RTR  --- 528599277 diffusion 0 [0 0 0 0] ------- [1:254 1:255 32 0] 
s 0.000001000 _2_ AGT  --- 1566500007 diffusion 0 [0 0 0 0] ------- [2:254 2:255 32 0] 
r 0.000001000 _2_ RTR  --- 1566500007 diffusion 0 [0 0 0 0] ------- [2:254 2:255 32 0] 
s 0.000001000 _3_ AGT  --- 1437693523 diffusion 0 [0 0 0 0] ------- [3:254 3:255 32 0] 
r 0.000001000 _3_ RTR  --- 1437693523 diffusion 0 [0 0 0 0] ------- [3:254 3:255 32 0] 
s 0.000001000 _4_ AGT  --- 300615853 diffusion 0 [0 0 0 0] ------- [4:254 4:255 32 0] 
r 0.000001000 _4_ RTR  --- 300615853 diffusion 0 [0 0 0 0] ------- [4:254 4:255 32 0] 
s 0.133001000 _1_ AGT  --- 528599278 diffusion 0 [0 0 0 0] ------- [1:254 1:255 32 0] 
r 0.133001000 _1_ RTR  --- 528599278 diffusion 0 [0 0 0 0] ------- [1:254 1:255 32 0] 
r 0.133002000 _1_ AGT  --- 1225933899 diffusion 0 [0 0 0 0] ------- [1:255 1:254 32 0] 
s 1.110001000 _4_ AGT  --- 300615854 diffusion 0 [0 0 0 0] ------- [4:254 4:255 32 0] 
r 1.110001000 _4_ RTR  --- 300615854 diffusion 0 [0 0 0 0] ------- [4:254 4:255 32 0] 
r 1.110002000 _4_ AGT  --- 611591120 diffusion 0 [0 0 0 0] ------- [4:255 4:254 32 0] 
s 1.205003000 _4_ AGT  --- 300615855 diffusion 0 [0 0 0 0] ------- [4:254 4:255 32 0] 
r 1.205003000 _4_ RTR  --- 300615855 diffusion 0 [0 0 0 0] ------- [4:254 4:255 32 0] 
r 1.206059194 _3_ RTR  --- 300615854 diffusion 0 [0 ffffffff 4 800] ------- [4:255 -1:255 32 0] 
r 1.206059477 _1_ RTR  --- 300615854 diffusion 0 [0 ffffffff 4 800] ------- [4:255 -1:255 32 0] 
r 1.206059590 _2_ RTR  --- 300615854 diffusion 0 [0 ffffffff 4 800] ------- [4:255 -1:255 32 0] 
r 1.206060194 _3_ AGT  --- 1223941496 diffusion 0 [0 0 0 0] ------- [3:255 3:254 32 0] 
r 1.206060477 _1_ AGT  --- 1225933900 diffusion 0 [0 0 0 0] ------- [1:255 1:254 32 0] 
r 1.206060590 _2_ AGT  --- 580900445 diffusion 0 [0 0 0 0] ------- [2:255 2:254 32 0] 
s 1.206061477 _1_ AGT  --- 528599279 diffusion 0 [0 0 0 0] ------- [1:254 1:255 32 0] 
r 1.206061477 _1_ RTR  --- 528599279 diffusion 0 [0 0 0 0] ------- [1:254 1:255 32 0] 
r 1.206062477 _1_ AGT  --- 0 diffusion 0 [0 0 0 0] ------- [1:255 1:254 32 0] 
s 1.283061477 _1_ AGT  --- 528599280 diffusion 0 [0 0 0 0] ------- [1:254 1:255 32 0] 
r 1.283061477 _1_ RTR  --- 528599280 diffusion 0 [0 0 0 0] ------- [1:254 1:255 32 0] 
r 1.283797954 _4_ RTR  --- 300615854 diffusion 0 [0 ffffffff 1 800] ------- [1:255 -1:255 32 0] 
r 1.283798076 _3_ RTR  --- 300615854 diffusion 0 [0 ffffffff 1 800] ------- [1:255 -1:255 32 0] 
r 1.283798187 _2_ RTR  --- 300615854 diffusion 0 [0 ffffffff 1 800] ------- [1:255 -1:255 32 0] 
r 1.283798954 _4_ AGT  --- 611591121 diffusion 0 [0 0 0 0] ------- [4:255 4:254 32 0] 
r 1.283799076 _3_ AGT  --- 1223941497 diffusion 0 [0 0 0 0] ------- [3:255 3:254 32 0] 
r 1.283799187 _2_ AGT  --- 580900446 diffusion 0 [0 0 0 0] ------- [2:255 2:254 32 0] 
s 1.287061590 _2_ AGT  --- 1566500008 diffusion 0 [0 0 0 0] ------- [2:254 2:255 32 0] 
r 1.287061590 _2_ RTR  --- 1566500008 diffusion 0 [0 0 0 0] ------- [2:254 2:255 32 0] 
r 1.287598042 _3_ RTR  --- 300615854 diffusion 0 [0 ffffffff 2 800] ------- [2:255 -1:255 32 0] 
r 1.287598180 _4_ RTR  --- 300615854 diffusion 0 [0 ffffffff 2 800] ------- [2:255 -1:255 32 0] 
r 1.287598300 _1_ RTR  --- 300615854 diffusion 0 [0 ffffffff 2 800] ------- [2:255 -1:255 32 0] 
r 1.287599042 _3_ AGT  --- 1223941498 diffusion 0 [0 0 0 0] ------- [3:255 3:254 32 0] 
r 1.287599180 _4_ AGT  --- 611591122 diffusion 0 [0 0 0 0] ------- [4:255 4:254 32 0] 
r 1.287599300 _1_ AGT  --- 1225933901 diffusion 0 [0 0 0 0] ------- [1:255 1:254 32 0] 
s 1.323061194 _3_ AGT  --- 1437693524 diffusion 0 [0 0 0 0] ------- [3:254 3:255 32 0] 
r 1.323061194 _3_ RTR  --- 1437693524 diffusion 0 [0 0 0 0] ------- [3:254 3:255 32 0] 
r 1.323917388 _4_ RTR  --- 300615854 diffusion 0 [0 ffffffff 3 800] ------- [3:255 -1:255 32 0] 
r 1.323917647 _2_ RTR  --- 300615854 diffusion 0 [0 ffffffff 3 800] ------- [3:255 -1:255 32 0] 
r 1.323917793 _1_ RTR  --- 300615854 diffusion 0 [0 ffffffff 3 800] ------- [3:255 -1:255 32 0] 
r 1.323918388 _4_ AGT  --- 611591123 diffusion 0 [0 0 0 0] ------- [4:255 4:254 32 0] 
r 1.323918647 _2_ AGT  --- 580900447 diffusion 0 [0 0 0 0] ------- [2:255 2:254 32 0] 
r 1.323918793 _1_ AGT  --- 1225933902 diffusion 0 [0 0 0 0] ------- [1:255 1:254 32 0] 
s 5.123001000 _1_ AGT  --- 528599281 diffusion 0 [0 0 0 0] ------- [1:254 1:255 32 0] 
r 5.123001000 _1_ RTR  --- 528599281 diffusion 0 [0 0 0 0] ------- [1:254 1:255 32 0] 
r 5.123002000 _1_ AGT  --- 1225933903 diffusion 0 [0 0 0 0] ------- [1:255 1:254 32 0] 
s 5.123003000 _1_ AGT  --- 528599282 diffusion 0 [0 0 0 0] ------- [1:254 1:255 32 0] 
r 5.123003000 _1_ RTR  --- 528599282 diffusion 0 [0 0 0 0] ------- [1:254 1:255 32 0] 
r 5.127053338 _4_ RTR  --- 528599281 diffusion 0 [13a 4 1 800] ------- [1:255 4:255 32 4] 
r 5.127054338 _4_ AGT  --- 611591124 diffusion 0 [0 0 0 0] ------- [4:255 4:254 32 0] 
s 5.127055338 _4_ AGT  --- 300615856 diffusion 0 [0 0 0 0] ------- [4:254 4:255 32 0] 
r 5.127055338 _4_ RTR  --- 300615856 diffusion 0 [0 0 0 0] ------- [4:254 4:255 32 0] 
r 5.127056338 _4_ AGT  --- 528599281 diffusion 0 [0 0 0 0] ------- [4:255 4:254 32 0] 
s 10.123001000 _1_ AGT  --- 528599283 diffusion 0 [0 0 0 0] ------- [1:254 1:255 32 0] 
r 10.123001000 _1_ RTR  --- 528599283 diffusion 0 [0 0 0 0] ------- [1:254 1:255 32 0] 
r 10.123002000 _1_ AGT  --- 1225933904 diffusion 0 [0 0 0 0] ------- [1:255 1:254 32 0] 
s 10.123003000 _1_ AGT  --- 528599284 diffusion 0 [0 0 0 0] ------- [1:254 1:255 32 0] 
r 10.123003000 _1_ RTR  --- 528599284 diffusion 0 [0 0 0 0] ------- [1:254 1:255 32 0] 
r 10.124256431 _4_ RTR  --- 528599283 diffusion 0 [13a 4 1 800] ------- [1:255 4:255 32 4] 
r 10.124257431 _4_ AGT  --- 611591125 diffusion 0 [0 0 0 0] ------- [4:255 4:254 32 0] 
s 10.124258431 _4_ AGT  --- 300615857 diffusion 0 [0 0 0 0] ------- [4:254 4:255 32 0] 
r 10.124258431 _4_ RTR  --- 300615857 diffusion 0 [0 0 0 0] ------- [4:254 4:255 32 0] 
r 10.124259431 _4_ AGT  --- 528599283 diffusion 0 [0 0 0 0] ------- [4:255 4:254 32 0] 
s 15.123001000 _1_ AGT  --- 528599285 diffusion 0 [0 0 0 0] ------- [1:254 1:255 32 0] 
r 15.123001000 _1_ RTR  --- 528599285 diffusion 0 [0 0 0 0] ------- [1:254 1:255 32 0] 
r 15.123002000 _1_ AGT  --- 1225933905 diffusion 0 [0 0 0 0] ------- [1:255 1:254 32 0] 
s 15.123003000 _1_ AGT  --- 528599286 diffusion 0 [0 0 0 0] ------- [1:254 1:255 32 0] 
r 15.123003000 _1_ RTR  --- 528599286 diffusion 0 [0 0 0 0] ------- [1:254 1:255 32 0] 
r 15.124456431 _4_ RTR  --- 528599285 diffusion 0 [13a 4 1 800] ------- [1:255 4:255 32 4] 
r 15.124457431 _4_ AGT  --- 611591126 diffusion 0 [0 0 0 0] ------- [4:255 4:254 32 0] 
s 15.124458431 _4_ AGT  --- 300615858 diffusion 0 [0 0 0 0] ------- [4:254 4:255 32 0] 
r 15.124458431 _4_ RTR  --- 300615858 diffusion 0 [0 0 0 0] ------- [4:254 4:255 32 0] 
r 15.124459431 _4_ AGT  --- 528599285 diffusion 0 [0 0 0 0] ------- [4:255 4:254 32 0] 
s 15.378001000 _1_ AGT  --- 528599287 diffusion 0 [0 0 0 0] ------- [1:254 1:255 32 0] 
r 15.378001000 _1_ RTR  --- 528599287 diffusion 0 [0 0 0 0] ------- [1:254 1:255 32 0] 
r 15.378002000 _1_ AGT  --- 1225933906 diffusion 0 [0 0 0 0] ------- [1:255 1:254 32 0] 
s 20.000001000 _0_ AGT  --- 1190071890 diffusion 0 [0 0 0 0] ------- [0:254 0:255 32 0] 
r 20.000001000 _0_ RTR  --- 1190071890 diffusion 0 [0 0 0 0] ------- [0:254 0:255 32 0] 
s 20.000001000 _1_ AGT  --- 528599288 diffusion 0 [0 0 0 0] ------- [1:254 1:255 32 0] 
r 20.000001000 _1_ RTR  --- 528599288 diffusion 0 [0 0 0 0] ------- [1:254 1:255 32 0] 
s 20.000001000 _2_ AGT  --- 1566500009 diffusion 0 [0 0 0 0] ------- [2:254 2:255 32 0] 
r 20.000001000 _2_ RTR  --- 1566500009 diffusion 0 [0 0 0 0] ------- [2:254 2:255 32 0] 
s 20.000001000 _3_ AGT  --- 1437693525 diffusion 0 [0 0 0 0] ------- [3:254 3:255 32 0] 
r 20.000001000 _3_ RTR  --- 1437693525 diffusion 0 [0 0 0 0] ------- [3:254 3:255 32 0] 
s 20.000001000 _4_ AGT  --- 300615859 diffusion 0 [0 0 0 0] ------- [4:254 4:255 32 0] 
r 20.000001000 _4_ RTR  --- 300615859 diffusion 0 [0 0 0 0] ------- [4:254 4:255 32 0] 
s 20.123001000 _1_ AGT  --- 528599289 diffusion 0 [0 0 0 0] ------- [1:254 1:255 32 0] 
r 20.123001000 _1_ RTR  --- 528599289 diffusion 0 [0 0 0 0] ------- [1:254 1:255 32 0] 
r 20.123002000 _1_ AGT  --- 1225933907 diffusion 0 [0 0 0 0] ------- [1:255 1:254 32 0] 
s 20.123003000 _1_ AGT  --- 528599290 diffusion 0 [0 0 0 0] ------- [1:254 1:255 32 0] 
r 20.123003000 _1_ RTR  --- 528599290 diffusion 0 [0 0 0 0] ------- [1:254 1:255 32 0] 
r 20.124316431 _4_ RTR  --- 528599289 diffusion 0 [13a 4 1 800] ------- [1:255 4:255 32 4] 
r 20.124317431 _4_ AGT  --- 611591127 diffusion 0 [0 0 0 0] ------- [4:255 4:254 32 0] 
s 20.124318431 _4_ AGT  --- 300615860 diffusion 0 [0 0 0 0] ------- [4:254 4:255 32 0] 
r 20.124318431 _4_ RTR  --- 300615860 diffusion 0 [0 0 0 0] ------- [4:254 4:255 32 0] 
r 20.124319431 _4_ AGT  --- 528599289 diffusion 0 [0 0 0 0] ------- [4:255 4:254 32 0] 
s 25.123001000 _1_ AGT  --- 528599291 diffusion 0 [0 0 0 0] ------- [1:254 1:255 32 0] 
r 25.123001000 _1_ RTR  --- 528599291 diffusion 0 [0 0 0 0] ------- [1:254 1:255 32 0] 
r 25.123002000 _1_ AGT  --- 1225933908 diffusion 0 [0 0 0 0] ------- [1:255 1:254 32 0] 
s 25.123003000 _1_ AGT  --- 528599292 diffusion 0 [0 0 0 0] ------- [1:254 1:255 32 0] 
r 25.123003000 _1_ RTR  --- 528599292 diffusion 0 [0 0 0 0] ------- [1:254 1:255 32 0] 
r 25.124776431 _4_ RTR  --- 528599291 diffusion 0 [13a 4 1 800] ------- [1:255 4:255 32 4] 
r 25.124777431 _4_ AGT  --- 611591128 diffusion 0 [0 0 0 0] ------- [4:255 4:254 32 0] 
s 25.124778431 _4_ AGT  --- 300615861 diffusion 0 [0 0 0 0] ------- [4:254 4:255 32 0] 
r 25.124778431 _4_ RTR  --- 300615861 diffusion 0 [0 0 0 0] ------- [4:254 4:255 32 0] 
r 25.124779431 _4_ AGT  --- 528599291 diffusion 0 [0 0 0 0] ------- [4:255 4:254 32 0] 
s 30.123001000 _1_ AGT  --- 528599293 diffusion 0 [0 0 0 0] ------- [1:254 1:255 32 0] 
r 30.123001000 _1_ RTR  --- 528599293 diffusion 0 [0 0 0 0] ------- [1:254 1:255 32 0] 
r 30.123002000 _1_ AGT  --- 1225933909 diffusion 0 [0 0 0 0] ------- [1:255 1:254 32 0] 
s 30.123003000 _1_ AGT  --- 528599294 diffusion 0 [0 0 0 0] ------- [1:254 1:255 32 0] 
r 30.123003000 _1_ RTR  --- 528599294 diffusion 0 [0 0 0 0] ------- [1:254 1:255 32 0] 
r 30.124596431 _4_ RTR  --- 528599293 diffusion 0 [13a 4 1 800] ------- [1:255 4:255 32 4] 
r 30.124597431 _4_ AGT  --- 611591129 diffusion 0 [0 0 0 0] ------- [4:255 4:254 32 0] 
s 30.124598431 _4_ AGT  --- 300615862 diffusion 0 [0 0 0 0] ------- [4:254 4:255 32 0] 
r 30.124598431 _4_ RTR  --- 300615862 diffusion 0 [0 0 0 0] ------- [4:254 4:255 32 0] 
r 30.124599431 _4_ AGT  --- 528599293 diffusion 0 [0 0 0 0] ------- [4:255 4:254 32 0] 
s 32.698001000 _4_ AGT  --- 300615863 diffusion 0 [0 0 0 0] ------- [4:254 4:255 32 0] 
r 32.698001000 _4_ RTR  --- 300615863 diffusion 0 [0 0 0 0] ------- [4:254 4:255 32 0] 
r 32.698002000 _4_ AGT  --- 611591130 diffusion 0 [0 0 0 0] ------- [4:255 4:254 32 0] 
s 32.800003000 _4_ AGT  --- 300615864 diffusion 0 [0 0 0 0] ------- [4:254 4:255 32 0] 
r 32.800003000 _4_ RTR  --- 300615864 diffusion 0 [0 0 0 0] ------- [4:254 4:255 32 0] 
r 32.800539194 _3_ RTR  --- 300615863 diffusion 0 [0 ffffffff 4 800] ------- [4:255 -1:255 32 0] 
r 32.800539477 _1_ RTR  --- 300615863 diffusion 0 [0 ffffffff 4 800] ------- [4:255 -1:255 32 0] 
r 32.800539590 _2_ RTR  --- 300615863 diffusion 0 [0 ffffffff 4 800] ------- [4:255 -1:255 32 0] 
r 32.800540194 _3_ AGT  --- 1223941499 diffusion 0 [0 0 0 0] ------- [3:255 3:254 32 0] 
r 32.800540477 _1_ AGT  --- 1225933910 diffusion 0 [0 0 0 0] ------- [1:255 1:254 32 0] 
r 32.800540590 _2_ AGT  --- 580900448 diffusion 0 [0 0 0 0] ------- [2:255 2:254 32 0] 
s 32.889541590 _2_ AGT  --- 1566500010 diffusion 0 [0 0 0 0] ------- [2:254 2:255 32 0] 
r 32.889541590 _2_ RTR  --- 1566500010 diffusion 0 [0 0 0 0] ------- [2:254 2:255 32 0] 
r 32.890378042 _3_ RTR  --- 300615863 diffusion 0 [0 ffffffff 2 800] ------- [2:255 -1:255 32 0] 
r 32.890378180 _4_ RTR  --- 300615863 diffusion 0 [0 ffffffff 2 800] ------- [2:255 -1:255 32 0] 
r 32.890378300 _1_ RTR  --- 300615863 diffusion 0 [0 ffffffff 2 800] ------- [2:255 -1:255 32 0] 
r 32.890379042 _3_ AGT  --- 1223941500 diffusion 0 [0 0 0 0] ------- [3:255 3:254 32 0] 
r 32.890379180 _4_ AGT  --- 611591131 diffusion 0 [0 0 0 0] ------- [4:255 4:254 32 0] 
r 32.890379300 _1_ AGT  --- 1225933911 diffusion 0 [0 0 0 0] ------- [1:255 1:254 32 0] 
s 32.906541194 _3_ AGT  --- 1437693526 diffusion 0 [0 0 0 0] ------- [3:254 3:255 32 0] 
r 32.906541194 _3_ RTR  --- 1437693526 diffusion 0 [0 0 0 0] ------- [3:254 3:255 32 0] 
r 32.907517388 _4_ RTR  --- 300615863 diffusion 0 [0 ffffffff 3 800] ------- [3:255 -1:255 32 0] 
r 32.907517647 _2_ RTR  --- 300615863 diffusion 0 [0 ffffffff 3 800] ------- [3:255 -1:255 32 0] 
r 32.907517793 _1_ RTR  --- 300615863 diffusion 0 [0 ffffffff 3 800] ------- [3:255 -1:255 32 0] 
r 32.907518388 _4_ AGT  --- 611591132 diffusion 0 [0 0 0 0] ------- [4:255 4:254 32 0] 
r 32.907518647 _2_ AGT  --- 580900449 diffusion 0 [0 0 0 0] ------- [2:255 2:254 32 0] 
r 32.907518793 _1_ AGT  --- 1225933912 diffusion 0 [0 0 0 0] ------- [1:255 1:254 32 0] 
s 32.917541477 _1_ AGT  --- 528599295 diffusion 0 [0 0 0 0] ------- [1:254 1:255 32 0] 
r 32.917541477 _1_ RTR  --- 528599295 diffusion 0 [0 0 0 0] ------- [1:254 1:255 32 0] 
r 32.918257954 _4_ RTR  --- 300615863 diffusion 0 [0 ffffffff 1 800] ------- [1:255 -1:255 32 0] 
r 32.918258076 _3_ RTR  --- 300615863 diffusion 0 [0 ffffffff 1 800] ------- [1:255 -1:255 32 0] 
r 32.918258187 _2_ RTR  --- 300615863 diffusion 0 [0 ffffffff 1 800] ------- [1:255 -1:255 32 0] 
r 32.918258954 _4_ AGT  --- 611591133 diffusion 0 [0 0 0 0] ------- [4:255 4:254 32 0] 
r 32.918259076 _3_ AGT  --- 1223941501 diffusion 0 [0 0 0 0] ------- [3:255 3:254 32 0] 
r 32.918259187 _2_ AGT  --- 580900450 diffusion 0 [0 0 0 0] ------- [2:255 2:254 32 0] 
s 34.267001000 _1_ AGT  --- 528599296 diffusion 0 [0 0 0 0] ------- [1:254 1:255 32 0] 
r 34.267001000 _1_ RTR  --- 528599296 diffusion 0 [0 0 0 0] ------- [1:254 1:255 32 0] 
r 34.267002000 _1_ AGT  --- 1225933913 diffusion 0 [0 0 0 0] ------- [1:255 1:254 32 0] 
s 35.123001000 _1_ AGT  --- 528599297 diffusion 0 [0 0 0 0] ------- [1:254 1:255 32 0] 
r 35.123001000 _1_ RTR  --- 528599297 diffusion 0 [0 0 0 0] ------- [1:254 1:255 32 0] 
r 35.123002000 _1_ AGT  --- 1225933914 diffusion 0 [0 0 0 0] ------- [1:255 1:254 32 0] 
s 35.123003000 _1_ AGT  --- 528599298 diffusion 0 [0 0 0 0] ------- [1:254 1:255 32 0] 
r 35.123003000 _1_ RTR  --- 528599298 diffusion 0 [0 0 0 0] ------- [1:254 1:255 32 0] 
r 35.124676431 _4_ RTR  --- 528599297 diffusion 0 [13a 4 1 800] ------- [1:255 4:255 32 4] 
r 35.124677431 _4_ AGT  --- 611591134 diffusion 0 [0 0 0 0] ------- [4:255 4:254 32 0] 
s 35.124678431 _4_ AGT  --- 300615865 diffusion 0 [0 0 0 0] ------- [4:254 4:255 32 0] 
r 35.124678431 _4_ RTR  --- 300615865 diffusion 0 [0 0 0 0] ------- [4:254 4:255 32 0] 
r 35.124679431 _4_ AGT  --- 528599297 diffusion 0 [0 0 0 0] ------- [4:255 4:254 32 0] 
s 40.000001000 _0_ AGT  --- 1190071891 diffusion 0 [0 0 0 0] ------- [0:254 0:255 32 0] 
r 40.000001000 _0_ RTR  --- 1190071891 diffusion 0 [0 0 0 0] ------- [0:254 0:255 32 0] 
s 40.000001000 _1_ AGT  --- 528599299 diffusion 0 [0 0 0 0] ------- [1:254 1:255 32 0] 
r 40.000001000 _1_ RTR  --- 528599299 diffusion 0 [0 0 0 0] ------- [1:254 1:255 32 0] 
s 40.000001000 _2_ AGT  --- 1566500011 diffusion 0 [0 0 0 0] ------- [2:254 2:255 32 0] 
r 40.000001000 _2_ RTR  --- 1566500011 diffusion 0 [0 0 0 0] ------- [2:254 2:255 32 0] 
s 40.000001000 _3_ AGT  --- 1437693527 diffusion 0 [0 0 0 0] ------- [3:254 3:255 32 0] 
r 40.000001000 _3_ RTR  --- 1437693527 diffusion 0 [0 0 0 0] ------- [3:254 3:255 32 0] 
s 40.000001000 _4_ AGT  --- 300615866 diffusion 0 [0 0 0 0] ------- [4:254 4:255 32 0] 
r 40.000001000 _4_ RTR  --- 300615866 diffusion 0 [0 0 0 0] ------- [4:254 4:255 32 0] 
s 40.123001000 _1_ AGT  --- 528599300 diffusion 0 [0 0 0 0] ------- [1:254 1:255 32 0] 
r 40.123001000 _1_ RTR  --- 528599300 diffusion 0 [0 0 0 0] ------- [1:254 1:255 32 0] 
r 40.123002000 _1_ AGT  --- 1225933915 diffusion 0 [0 0 0 0] ------- [1:255 1:254 32 0] 
s 40.123003000 _1_ AGT  --- 528599301 diffusion 0 [0 0 0 0] ------- [1:254 1:255 32 0] 
r 40.123003000 _1_ RTR  --- 528599301 diffusion 0 [0 0 0 0] ------- [1:254 1:255 32 0] 
r 40.124316431 _4_ RTR  --- 528599300 diffusion 0 [13a 4 1 800] ------- [1:255 4:255 32 4] 
r 40.124317431 _4_ AGT  --- 611591135 diffusion 0 [0 0 0 0] ------- [4:255 4:254 32 0] 
s 40.124318431 _4_ AGT  --- 300615867 diffusion 0 [0 0 0 0] ------- [4:254 4:255 32 0] 
r 40.124318431 _4_ RTR  --- 300615867 diffusion 0 [0 0 0 0] ------- [4:254 4:255 32 0] 
r 40.124319431 _4_ AGT  --- 528599300 diffusion 0 [0 0 0 0] ------- [4:255 4:254 32 0] 
s 41.748001000 _4_ AGT  --- 300615868 diffusion 0 [0 0 0 0] ------- [4:254 4:255 32 0] 
r 41.748001000 _4_ RTR  --- 300615868 diffusion 0 [0 0 0 0] ------- [4:254 4:255 32 0] 
r 41.748002000 _4_ AGT  --- 611591136 diffusion 0 [0 0 0 0] ------- [4:255 4:254 32 0] 
s 41.867003000 _4_ AGT  --- 300615869 diffusion 0 [0 0 0 0] ------- [4:254 4:255 32 0] 
r 41.867003000 _4_ RTR  --- 300615869 diffusion 0 [0 0 0 0] ------- [4:254 4:255 32 0] 
r 41.867799194 _3_ RTR  --- 300615868 diffusion 0 [0 ffffffff 4 800] ------- [4:255 -1:255 32 0] 
r 41.867799477 _1_ RTR  --- 300615868 diffusion 0 [0 ffffffff 4 800] ------- [4:255 -1:255 32 0] 
r 41.867799590 _2_ RTR  --- 300615868 diffusion 0 [0 ffffffff 4 800] ------- [4:255 -1:255 32 0] 
r 41.867800194 _3_ AGT  --- 1223941502 diffusion 0 [0 0 0 0] ------- [3:255 3:254 32 0] 
r 41.867800477 _1_ AGT  --- 1225933916 diffusion 0 [0 0 0 0] ------- [1:255 1:254 32 0] 
r 41.867800590 _2_ AGT  --- 580900451 diffusion 0 [0 0 0 0] ------- [2:255 2:254 32 0] 
s 41.967801477 _1_ AGT  --- 528599302 diffusion 0 [0 0 0 0] ------- [1:254 1:255 32 0] 
r 41.967801477 _1_ RTR  --- 528599302 diffusion 0 [0 0 0 0] ------- [1:254 1:255 32 0] 
r 41.968737954 _4_ RTR  --- 300615868 diffusion 0 [0 ffffffff 1 800] ------- [1:255 -1:255 32 0] 
r 41.968738076 _3_ RTR  --- 300615868 diffusion 0 [0 ffffffff 1 800] ------- [1:255 -1:255 32 0] 
r 41.968738187 _2_ RTR  --- 300615868 diffusion 0 [0 ffffffff 1 800] ------- [1:255 -1:255 32 0] 
r 41.968738954 _4_ AGT  --- 611591137 diffusion 0 [0 0 0 0] ------- [4:255 4:254 32 0] 
r 41.968739076 _3_ AGT  --- 1223941503 diffusion 0 [0 0 0 0] ------- [3:255 3:254 32 0] 
r 41.968739187 _2_ AGT  --- 580900452 diffusion 0 [0 0 0 0] ------- [2:255 2:254 32 0] 
s 41.971801194 _3_ AGT  --- 1437693528 diffusion 0 [0 0 0 0] ------- [3:254 3:255 32 0] 
r 41.971801194 _3_ RTR  --- 1437693528 diffusion 0 [0 0 0 0] ------- [3:254 3:255 32 0] 
r 41.972477388 _4_ RTR  --- 300615868 diffusion 0 [0 ffffffff 3 800] ------- [3:255 -1:255 32 0] 
r 41.972477647 _2_ RTR  --- 300615868 diffusion 0 [0 ffffffff 3 800] ------- [3:255 -1:255 32 0] 
r 41.972477793 _1_ RTR  --- 300615868 diffusion 0 [0 ffffffff 3 800] ------- [3:255 -1:255 32 0] 
r 41.972478388 _4_ AGT  --- 611591138 diffusion 0 [0 0 0 0] ------- [4:255 4:254 32 0] 
r 41.972478647 _2_ AGT  --- 580900453 diffusion 0 [0 0 0 0] ------- [2:255 2:254 32 0] 
r 41.972478793 _1_ AGT  --- 1225933917 diffusion 0 [0 0 0 0] ------- [1:255 1:254 32 0] 
s 41.980801590 _2_ AGT  --- 1566500012 diffusion 0 [0 0 0 0] ------- [2:254 2:255 32 0] 
r 41.980801590 _2_ RTR  --- 1566500012 diffusion 0 [0 0 0 0] ------- [2:254 2:255 32 0] 
r 41.981558042 _3_ RTR  --- 300615868 diffusion 0 [0 ffffffff 2 800] ------- [2:255 -1:255 32 0] 
r 41.981558180 _4_ RTR  --- 300615868 diffusion 0 [0 ffffffff 2 800] ------- [2:255 -1:255 32 0] 
r 41.981558300 _1_ RTR  --- 300615868 diffusion 0 [0 ffffffff 2 800] ------- [2:255 -1:255 32 0] 
r 41.981559042 _3_ AGT  --- 1223941504 diffusion 0 [0 0 0 0] ------- [3:255 3:254 32 0] 
r 41.981559180 _4_ AGT  --- 611591139 diffusion 0 [0 0 0 0] ------- [4:255 4:254 32 0] 
r 41.981559300 _1_ AGT  --- 1225933918 diffusion 0 [0 0 0 0] ------- [1:255 1:254 32 0] 
s 45.123001000 _1_ AGT  --- 528599303 diffusion 0 [0 0 0 0] ------- [1:254 1:255 32 0] 
r 45.123001000 _1_ RTR  --- 528599303 diffusion 0 [0 0 0 0] ------- [1:254 1:255 32 0] 
r 45.123002000 _1_ AGT  --- 1225933919 diffusion 0 [0 0 0 0] ------- [1:255 1:254 32 0] 
s 45.123003000 _1_ AGT  --- 528599304 diffusion 0 [0 0 0 0] ------- [1:254 1:255 32 0] 
r 45.123003000 _1_ RTR  --- 528599304 diffusion 0 [0 0 0 0] ------- [1:254 1:255 32 0] 
r 45.124256431 _4_ RTR  --- 528599303 diffusion 0 [13a 4 1 800] ------- [1:255 4:255 32 4] 
r 45.124257431 _4_ AGT  --- 611591140 diffusion 0 [0 0 0 0] ------- [4:255 4:254 32 0] 
s 45.124258431 _4_ AGT  --- 300615870 diffusion 0 [0 0 0 0] ------- [4:254 4:255 32 0] 
r 45.124258431 _4_ RTR  --- 300615870 diffusion 0 [0 0 0 0] ------- [4:254 4:255 32 0] 
r 45.124259431 _4_ AGT  --- 528599303 diffusion 0 [0 0 0 0] ------- [4:255 4:254 32 0] 
s 50.123001000 _1_ AGT  --- 528599305 diffusion 0 [0 0 0 0] ------- [1:254 1:255 32 0] 
r 50.123001000 _1_ RTR  --- 528599305 diffusion 0 [0 0 0 0] ------- [1:254 1:255 32 0] 
r 50.123002000 _1_ AGT  --- 1225933920 diffusion 0 [0 0 0 0] ------- [1:255 1:254 32 0] 
s 50.123003000 _1_ AGT  --- 528599306 diffusion 0 [0 0 0 0] ------- [1:254 1:255 32 0] 
r 50.123003000 _1_ RTR  --- 528599306 diffusion 0 [0 0 0 0] ------- [1:254 1:255 32 0] 
r 50.124476431 _4_ RTR  --- 528599305 diffusion 0 [13a 4 1 800] ------- [1:255 4:255 32 4] 
r 50.124477431 _4_ AGT  --- 611591141 diffusion 0 [0 0 0 0] ------- [4:255 4:254 32 0] 
s 50.124478431 _4_ AGT  --- 300615871 diffusion 0 [0 0 0 0] ------- [4:254 4:255 32 0] 
r 50.124478431 _4_ RTR  --- 300615871 diffusion 0 [0 0 0 0] ------- [4:254 4:255 32 0] 
r 50.124479431 _4_ AGT  --- 528599305 diffusion 0 [0 0 0 0] ------- [4:255 4:254 32 0] 
s 55.123001000 _1_ AGT  --- 528599307 diffusion 0 [0 0 0 0] ------- [1:254 1:255 32 0] 
r 55.123001000 _1_ RTR  --- 528599307 diffusion 0 [0 0 0 0] ------- [1:254 1:255 32 0] 
r 55.123002000 _1_ AGT  --- 1225933921 diffusion 0 [0 0 0 0] ------- [1:255 1:254 32 0] 
s 55.123003000 _1_ AGT  --- 528599308 diffusion 0 [0 0 0 0] ------- [1:254 1:255 32 0] 
r 55.123003000 _1_ RTR  --- 528599308 diffusion 0 [0 0 0 0] ------- [1:254 1:255 32 0] 
r 55.124576431 _4_ RTR  --- 528599307 diffusion 0 [13a 4 1 800] ------- [1:255 4:255 32 4] 
r 55.124577431 _4_ AGT  --- 611591142 diffusion 0 [0 0 0 0] ------- [4:255 4:254 32 0] 
s 55.124578431 _4_ AGT  --- 300615872 diffusion 0 [0 0 0 0] ------- [4:254 4:255 32 0] 
r 55.124578431 _4_ RTR  --- 300615872 diffusion 0 [0 0 0 0] ------- [4:254 4:255 32 0] 
r 55.124579431 _4_ AGT  --- 528599307 diffusion 0 [0 0 0 0] ------- [4:255 4:254 32 0] 
s 55.297001000 _1_ AGT  --- 528599309 diffusion 0 [0 0 0 0] ------- [1:254 1:255 32 0] 
r 55.297001000 _1_ RTR  --- 528599309 diffusion 0 [0 0 0 0] ------- [1:254 1:255 32 0] 
r 55.297002000 _1_ AGT  --- 1225933922 diffusion 0 [0 0 0 0] ------- [1:255 1:254 32 0] 
s 60.000001000 _0_ AGT  --- 1190071892 diffusion 0 [0 0 0 0] ------- [0:254 0:255 32 0] 
r 60.000001000 _0_ RTR  --- 1190071892 diffusion 0 [0 0 0 0] ------- [0:254 0:255 32 0] 
s 60.000001000 _1_ AGT  --- 528599310 diffusion 0 [0 0 0 0] ------- [1:254 1:255 32 0] 
r 60.000001000 _1_ RTR  --- 528599310 diffusion 0 [0 0 0 0] ------- [1:254 1:255 32 0] 
s 60.000001000 _2_ AGT  --- 1566500013 diffusion 0 [0 0 0 0] ------- [2:254 2:255 32 0] 
r 60.000001000 _2_ RTR  --- 1566500013 diffusion 0 [0 0 0 0] ------- [2:254 2:255 32 0] 
s 60.000001000 _3_ AGT  --- 1437693529 diffusion 0 [0 0 0 0] ------- [3:254 3:255 32 0] 
r 60.000001000 _3_ RTR  --- 1437693529 diffusion 0 [0 0 0 0] ------- [3:254 3:255 32 0] 
s 60.000001000 _4_ AGT  --- 300615873 diffusion 0 [0 0 0 0] ------- [4:254 4:255 32 0] 
r 60.000001000 _4_ RTR  --- 300615873 diffusion 0 [0 0 0 0] ------- [4:254 4:255 32 0] 
s 60.123001000 _1_ AGT  --- 528599311 diffusion 0 [0 0 0 0] ------- [1:254 1:255 32 0] 
r 60.123001000 _1_ RTR  --- 528599311 diffusion 0 [0 0 0 0] ------- [1:254 1:255 32 0] 
r 60.123002000 _1_ AGT  --- 1225933923 diffusion 0 [0 0 0 0] ------- [1:255 1:254 32 0] 
s 60.123003000 _1_ AGT  --- 528599312 diffusion 0 [0 0 0 0] ------- [1:254 1:255 32 0] 
r 60.123003000 _1_ RTR  --- 528599312 diffusion 0 [0 0 0 0] ------- [1:254 1:255 32 0] 
r 60.124576431 _4_ RTR  --- 528599311 diffusion 0 [13a 4 1 800] ------- [1:255 4:255 32 4] 
r 60.124577431 _4_ AGT  --- 611591143 diffusion 0 [0 0 0 0] ------- [4:255 4:254 32 0] 
s 60.124578431 _4_ AGT  --- 300615874 diffusion 0 [0 0 0 0] ------- [4:254 4:255 32 0] 
r 60.124578431 _4_ RTR  --- 300615874 diffusion 0 [0 0 0 0] ------- [4:254 4:255 32 0] 
r 60.124579431 _4_ AGT  --- 528599311 diffusion 0 [0 0 0 0] ------- [4:255 4:254 32 0] 
s 65.123001000 _1_ AGT  --- 528599313 diffusion 0 [0 0 0 0] ------- [1:254 1:255 32 0] 
r 65.123001000 _1_ RTR  --- 528599313 diffusion 0 [0 0 0 0] ------- [1:254 1:255 32 0] 
r 65.123002000 _1_ AGT  --- 1225933924 diffusion 0 [0 0 0 0] ------- [1:255 1:254 32 0] 
s 65.123003000 _1_ AGT  --- 528599314 diffusion 0 [0 0 0 0] ------- [1:254 1:255 32 0] 
r 65.123003000 _1_ RTR  --- 528599314 diffusion 0 [0 0 0 0] ------- [1:254 1:255 32 0] 
r 65.124196431 _4_ RTR  --- 528599313 diffusion 0 [13a 4 1 800] ------- [1:255 4:255 32 4] 
r 65.124197431 _4_ AGT  --- 611591144 diffusion 0 [0 0 0 0] ------- [4:255 4:254 32 0] 
s 65.124198431 _4_ AGT  --- 300615875 diffusion 0 [0 0 0 0] ------- [4:254 4:255 32 0] 
r 65.124198431 _4_ RTR  --- 300615875 diffusion 0 [0 0 0 0] ------- [4:254 4:255 32 0] 
r 65.124199431 _4_ AGT  --- 528599313 diffusion 0 [0 0 0 0] ------- [4:255 4:254 32 0] 
s 68.348001000 _1_ AGT  --- 528599315 diffusion 0 [0 0 0 0] ------- [1:254 1:255 32 0] 
r 68.348001000 _1_ RTR  --- 528599315 diffusion 0 [0 0 0 0] ------- [1:254 1:255 32 0] 
r 68.348002000 _1_ AGT  --- 1225933925 diffusion 0 [0 0 0 0] ------- [1:255 1:254 32 0] 
s 70.123001000 _1_ AGT  --- 528599316 diffusion 0 [0 0 0 0] ------- [1:254 1:255 32 0] 
r 70.123001000 _1_ RTR  --- 528599316 diffusion 0 [0 0 0 0] ------- [1:254 1:255 32 0] 
r 70.123002000 _1_ AGT  --- 1225933926 diffusion 0 [0 0 0 0] ------- [1:255 1:254 32 0] 
s 70.123003000 _1_ AGT  --- 528599317 diffusion 0 [0 0 0 0] ------- [1:254 1:255 32 0] 
r 70.123003000 _1_ RTR  --- 528599317 diffusion 0 [0 0 0 0] ------- [1:254 1:255 32 0] 
r 70.124696431 _4_ RTR  --- 528599316 diffusion 0 [13a 4 1 800] ------- [1:255 4:255 32 4] 
r 70.124697431 _4_ AGT  --- 611591145 diffusion 0 [0 0 0 0] ------- [4:255 4:254 32 0] 
s 70.124698431 _4_ AGT  --- 300615876 diffusion 0 [0 0 0 0] ------- [4:254 4:255 32 0] 
r 70.124698431 _4_ RTR  --- 300615876 diffusion 0 [0 0 0 0] ------- [4:254 4:255 32 0] 
r 70.124699431 _4_ AGT  --- 528599316 diffusion 0 [0 0 0 0] ------- [4:255 4:254 32 0] 
s 74.194001000 _4_ AGT  --- 300615877 diffusion 0 [0 0 0 0] ------- [4:254 4:255 32 0] 
r 74.194001000 _4_ RTR  --- 300615877 diffusion 0 [0 0 0 0] ------- [4:254 4:255 32 0] 
r 74.194002000 _4_ AGT  --- 611591146 diffusion 0 [0 0 0 0] ------- [4:255 4:254 32 0] 
s 74.312003000 _4_ AGT  --- 300615878 diffusion 0 [0 0 0 0] ------- [4:254 4:255 32 0] 
r 74.312003000 _4_ RTR  --- 300615878 diffusion 0 [0 0 0 0] ------- [4:254 4:255 32 0] 
r 74.312559194 _3_ RTR  --- 300615877 diffusion 0 [0 ffffffff 4 800] ------- [4:255 -1:255 32 0] 
r 74.312559477 _1_ RTR  --- 300615877 diffusion 0 [0 ffffffff 4 800] ------- [4:255 -1:255 32 0] 
r 74.312559590 _2_ RTR  --- 300615877 diffusion 0 [0 ffffffff 4 800] ------- [4:255 -1:255 32 0] 
r 74.312560194 _3_ AGT  --- 1223941505 diffusion 0 [0 0 0 0] ------- [3:255 3:254 32 0] 
r 74.312560477 _1_ AGT  --- 1225933927 diffusion 0 [0 0 0 0] ------- [1:255 1:254 32 0] 
r 74.312560590 _2_ AGT  --- 580900454 diffusion 0 [0 0 0 0] ------- [2:255 2:254 32 0] 
s 74.399561194 _3_ AGT  --- 1437693530 diffusion 0 [0 0 0 0] ------- [3:254 3:255 32 0] 
r 74.399561194 _3_ RTR  --- 1437693530 diffusion 0 [0 0 0 0] ------- [3:254 3:255 32 0] 
r 74.400217388 _4_ RTR  --- 300615877 diffusion 0 [0 ffffffff 3 800] ------- [3:255 -1:255 32 0] 
r 74.400217647 _2_ RTR  --- 300615877 diffusion 0 [0 ffffffff 3 800] ------- [3:255 -1:255 32 0] 
r 74.400217793 _1_ RTR  --- 300615877 diffusion 0 [0 ffffffff 3 800] ------- [3:255 -1:255 32 0] 
r 74.400218388 _4_ AGT  --- 611591147 diffusion 0 [0 0 0 0] ------- [4:255 4:254 32 0] 
r 74.400218647 _2_ AGT  --- 580900455 diffusion 0 [0 0 0 0] ------- [2:255 2:254 32 0] 
r 74.400218793 _1_ AGT  --- 1225933928 diffusion 0 [0 0 0 0] ------- [1:255 1:254 32 0] 
s 74.411561590 _2_ AGT  --- 1566500014 diffusion 0 [0 0 0 0] ------- [2:254 2:255 32 0] 
r 74.411561590 _2_ RTR  --- 1566500014 diffusion 0 [0 0 0 0] ------- [2:254 2:255 32 0] 
r 74.412458042 _3_ RTR  --- 300615877 diffusion 0 [0 ffffffff 2 800] ------- [2:255 -1:255 32 0] 
r 74.412458180 _4_ RTR  --- 300615877 diffusion 0 [0 ffffffff 2 800] ------- [2:255 -1:255 32 0] 
r 74.412458300 _1_ RTR  --- 300615877 diffusion 0 [0 ffffffff 2 800] ------- [2:255 -1:255 32 0] 
r 74.412459042 _3_ AGT  --- 1223941506 diffusion 0 [0 0 0 0] ------- [3:255 3:254 32 0] 
r 74.412459180 _4_ AGT  --- 611591148 diffusion 0 [0 0 0 0] ------- [4:255 4:254 32 0] 
r 74.412459300 _1_ AGT  --- 1225933929 diffusion 0 [0 0 0 0] ------- [1:255 1:254 32 0] 
s 74.435561477 _1_ AGT  --- 528599318 diffusion 0 [0 0 0 0] ------- [1:254 1:255 32 0] 
r 74.435561477 _1_ RTR  --- 528599318 diffusion 0 [0 0 0 0] ------- [1:254 1:255 32 0] 
r 74.436137954 _4_ RTR  --- 300615877 diffusion 0 [0 ffffffff 1 800] ------- [1:255 -1:255 32 0] 
r 74.436138076 _3_ RTR  --- 300615877 diffusion 0 [0 ffffffff 1 800] ------- [1:255 -1:255 32 0] 