s 0.000001000 _0_ AGT  --- 1190071889 diffusion 0 [0 0 0 0] ------- [0:254 0:255 32 0] 
s 0.000001000 _1_ AGT  --- 528599277 diffusion 0 [0 0 0 0] ------- [1:254 1:255 32 0] 
s 0.000001000 _2_ AGT  --- 1566500007 diffusion 0 [0 0 0 0] ------- [2:254 2:255 32 0] 
s 0.000001000 _3_ AGT  --- 1437693523 diffusion 0 [0 0 0 0] ------- [3:254 3:255 32 0] 
s 0.000001000 _4_ AGT  --- 300615853 diffusion 0 [0 0 0 0] ------- [4:254 4:255 32 0] 
s 0.000001000 _5_ AGT  --- 905258839 diffusion 0 [0 0 0 0] ------- [5:254 5:255 32 0] 
s 0.000001000 _6_ AGT  --- 1811076627 diffusion 0 [0 0 0 0] ------- [6:254 6:255 32 0] 
s 0.000001000 _7_ AGT  --- 1732828135 diffusion 0 [0 0 0 0] ------- [7:254 7:255 32 0] 
s 0.000001000 _8_ AGT  --- 379185994 diffusion 0 [0 0 0 0] ------- [8:254 8:255 32 0] 
s 0.000001000 _9_ AGT  --- 1003364341 diffusion 0 [0 0 0 0] ------- [9:254 9:255 32 0] 
s 0.133001000 _2_ AGT  --- 1566500008 diffusion 0 [0 0 0 0] ------- [2:254 2:255 32 0] 
r 0.133002000 _2_ AGT  --- 580900445 diffusion 0 [0 0 0 0] ------- [2:255 2:254 32 0] 
s 1.110001000 _9_ AGT  --- 1003364342 diffusion 0 [0 0 0 0] ------- [9:254 9:255 32 0] 
r 1.110002000 _9_ AGT  --- 495722036 diffusion 0 [0 0 0 0] ------- [9:255 9:254 32 0] 
s 1.198003000 _9_ AGT  --- 1003364343 diffusion 0 [0 0 0 0] ------- [9:254 9:255 32 0] 
r 1.199096328 _2_ AGT  --- 580900446 diffusion 0 [0 0 0 0] ------- [2:255 2:254 32 0] 
r 1.199096342 _3_ AGT  --- 1223941496 diffusion 0 [0 0 0 0] ------- [3:255 3:254 32 0] 
r 1.199096426 _7_ AGT  --- 394266824 diffusion 0 [0 0 0 0] ------- [7:255 7:254 32 0] 
r 1.199096536 _4_ AGT  --- 611591120 diffusion 0 [0 0 0 0] ------- [4:255 4:254 32 0] 
s 1.199097328 _2_ AGT  --- 1566500009 diffusion 0 [0 0 0 0] ------- [2:254 2:255 32 0] 
r 1.199098328 _2_ AGT  --- 0 diffusion 0 [0 0 0 0] ------- [2:255 2:254 32 0] 
s 1.288097342 _3_ AGT  --- 1437693524 diffusion 0 [0 0 0 0] ------- [3:254 3:255 32 0] 
r 1.289090536 _4_ AGT  --- 611591121 diffusion 0 [0 0 0 0] ------- [4:255 4:254 32 0] 
r 1.289090685 _9_ AGT  --- 495722037 diffusion 0 [0 0 0 0] ------- [9:255 9:254 32 0] 
r 1.289090795 _2_ AGT  --- 580900447 diffusion 0 [0 0 0 0] ------- [2:255 2:254 32 0] 
r 1.289090941 _1_ AGT  --- 1225933899 diffusion 0 [0 0 0 0] ------- [1:255 1:254 32 0] 
r 1.289091110 _7_ AGT  --- 394266825 diffusion 0 [0 0 0 0] ------- [7:255 7:254 32 0] 
r 1.289091159 _6_ AGT  --- 557533818 diffusion 0 [0 0 0 0] ------- [6:255 6:254 32 0] 
s 1.293097536 _4_ AGT  --- 300615854 diffusion 0 [0 0 0 0] ------- [4:254 4:255 32 0] 
r 1.294190730 _3_ AGT  --- 1223941497 diffusion 0 [0 0 0 0] ------- [3:255 3:254 32 0] 
r 1.294191012 _1_ AGT  --- 1225933900 diffusion 0 [0 0 0 0] ------- [1:255 1:254 32 0] 
r 1.294191071 _9_ AGT  --- 495722038 diffusion 0 [0 0 0 0] ------- [9:255 9:254 32 0] 
r 1.294191126 _2_ AGT  --- 580900448 diffusion 0 [0 0 0 0] ------- [2:255 2:254 32 0] 
r 1.294191340 _6_ AGT  --- 557533819 diffusion 0 [0 0 0 0] ------- [6:255 6:254 32 0] 
s 1.312097426 _7_ AGT  --- 1732828136 diffusion 0 [0 0 0 0] ------- [7:254 7:255 32 0] 
r 1.313190852 _9_ AGT  --- 495722039 diffusion 0 [0 0 0 0] ------- [9:255 9:254 32 0] 
r 1.313190983 _2_ AGT  --- 580900449 diffusion 0 [0 0 0 0] ------- [2:255 2:254 32 0] 
r 1.313191194 _3_ AGT  --- 1223941498 diffusion 0 [0 0 0 0] ------- [3:255 3:254 32 0] 
s 1.316097328 _2_ AGT  --- 1566500010 diffusion 0 [0 0 0 0] ------- [2:254 2:255 32 0] 
r 1.316630656 _9_ AGT  --- 495722040 diffusion 0 [0 0 0 0] ------- [9:255 9:254 32 0] 
r 1.316630780 _3_ AGT  --- 1223941499 diffusion 0 [0 0 0 0] ------- [3:255 3:254 32 0] 
r 1.316630885 _7_ AGT  --- 394266826 diffusion 0 [0 0 0 0] ------- [7:255 7:254 32 0] 
r 1.316630918 _4_ AGT  --- 611591122 diffusion 0 [0 0 0 0] ------- [4:255 4:254 32 0] 
r 1.316631038 _1_ AGT  --- 1225933901 diffusion 0 [0 0 0 0] ------- [1:255 1:254 32 0] 
s 1.368092159 _6_ AGT  --- 1811076628 diffusion 0 [0 0 0 0] ------- [6:254 6:255 32 0] 
r 1.368625306 _8_ AGT  --- 1180591529 diffusion 0 [0 0 0 0] ------- [8:255 8:254 32 0] 
r 1.368625599 _0_ AGT  --- 2045655601 diffusion 0 [0 0 0 0] ------- [0:255 0:254 32 0] 
r 1.368625803 _5_ AGT  --- 885480288 diffusion 0 [0 0 0 0] ------- [5:255 5:254 32 0] 
r 1.368625963 _4_ AGT  --- 611591123 diffusion 0 [0 0 0 0] ------- [4:255 4:254 32 0] 
r 1.368625975 _3_ AGT  --- 1223941500 diffusion 0 [0 0 0 0] ------- [3:255 3:254 32 0] 
s 1.391091941 _1_ AGT  --- 528599278 diffusion 0 [0 0 0 0] ------- [1:254 1:255 32 0] 
r 1.392085418 _4_ AGT  --- 611591124 diffusion 0 [0 0 0 0] ------- [4:255 4:254 32 0] 
r 1.392085540 _3_ AGT  --- 1223941501 diffusion 0 [0 0 0 0] ------- [3:255 3:254 32 0] 
r 1.392085651 _2_ AGT  --- 580900450 diffusion 0 [0 0 0 0] ------- [2:255 2:254 32 0] 
s 1.466626306 _8_ AGT  --- 379185995 diffusion 0 [0 0 0 0] ------- [8:254 8:255 32 0] 
r 1.467619454 _6_ AGT  --- 557533820 diffusion 0 [0 0 0 0] ------- [6:255 6:254 32 0] 
r 1.467619624 _0_ AGT  --- 2045655602 diffusion 0 [0 0 0 0] ------- [0:255 0:254 32 0] 
r 1.467620030 _5_ AGT  --- 885480289 diffusion 0 [0 0 0 0] ------- [5:255 5:254 32 0] 
s 1.468626803 _5_ AGT  --- 905258840 diffusion 0 [0 0 0 0] ------- [5:254 5:255 32 0] 
r 1.469420448 _6_ AGT  --- 557533821 diffusion 0 [0 0 0 0] ------- [6:255 6:254 32 0] 
r 1.469420527 _8_ AGT  --- 1180591530 diffusion 0 [0 0 0 0] ------- [8:255 8:254 32 0] 
s 1.472626599 _0_ AGT  --- 1190071890 diffusion 0 [0 0 0 0] ------- [0:254 0:255 32 0] 
r 1.473359917 _8_ AGT  --- 1180591531 diffusion 0 [0 0 0 0] ------- [8:255 8:254 32 0] 
r 1.473360039 _6_ AGT  --- 557533822 diffusion 0 [0 0 0 0] ------- [6:255 6:254 32 0] 
s 2.210001000 _8_ AGT  --- 379185996 diffusion 0 [0 0 0 0] ------- [8:254 8:255 32 0] 
r 2.210002000 _8_ AGT  --- 1180591532 diffusion 0 [0 0 0 0] ------- [8:255 8:254 32 0] 
s 2.301003000 _8_ AGT  --- 379185997 diffusion 0 [0 0 0 0] ------- [8:254 8:255 32 0] 
r 2.301916148 _6_ AGT  --- 557533823 diffusion 0 [0 0 0 0] ------- [6:255 6:254 32 0] 
r 2.301916318 _0_ AGT  --- 2045655603 diffusion 0 [0 0 0 0] ------- [0:255 0:254 32 0] 
r 2.301916724 _5_ AGT  --- 885480290 diffusion 0 [0 0 0 0] ------- [5:255 5:254 32 0] 
s 2.394917148 _6_ AGT  --- 1811076629 diffusion 0 [0 0 0 0] ------- [6:254 6:255 32 0] 
r 2.395450296 _8_ AGT  --- 1180591533 diffusion 0 [0 0 0 0] ------- [8:255 8:254 32 0] 
r 2.395450588 _0_ AGT  --- 2045655604 diffusion 0 [0 0 0 0] ------- [0:255 0:254 32 0] 
r 2.395450793 _5_ AGT  --- 885480291 diffusion 0 [0 0 0 0] ------- [5:255 5:254 32 0] 
r 2.395450952 _4_ AGT  --- 611591125 diffusion 0 [0 0 0 0] ------- [4:255 4:254 32 0] 
r 2.395450964 _3_ AGT  --- 1223941502 diffusion 0 [0 0 0 0] ------- [3:255 3:254 32 0] 
s 2.407917318 _0_ AGT  --- 1190071891 diffusion 0 [0 0 0 0] ------- [0:254 0:255 32 0] 
r 2.408450636 _8_ AGT  --- 1180591534 diffusion 0 [0 0 0 0] ------- [8:255 8:254 32 0] 
r 2.408450758 _6_ AGT  --- 557533824 diffusion 0 [0 0 0 0] ------- [6:255 6:254 32 0] 
s 2.423917724 _5_ AGT  --- 905258841 diffusion 0 [0 0 0 0] ------- [5:254 5:255 32 0] 
r 2.424611369 _6_ AGT  --- 557533825 diffusion 0 [0 0 0 0] ------- [6:255 6:254 32 0] 
r 2.424611448 _8_ AGT  --- 1180591535 diffusion 0 [0 0 0 0] ------- [8:255 8:254 32 0] 
s 2.503451952 _4_ AGT  --- 300615855 diffusion 0 [0 0 0 0] ------- [4:254 4:255 32 0] 
s 2.504451964 _3_ AGT  --- 1437693525 diffusion 0 [0 0 0 0] ------- [3:254 3:255 32 0] 
r 2.504485146 _3_ AGT  --- 1223941503 diffusion 0 [0 0 0 0] ------- [3:255 3:254 32 0] 
r 2.504485429 _1_ AGT  --- 1225933902 diffusion 0 [0 0 0 0] ------- [1:255 1:254 32 0] 
r 2.504485488 _9_ AGT  --- 495722041 diffusion 0 [0 0 0 0] ------- [9:255 9:254 32 0] 
r 2.504485542 _2_ AGT  --- 580900451 diffusion 0 [0 0 0 0] ------- [2:255 2:254 32 0] 
r 2.504485756 _6_ AGT  --- 557533826 diffusion 0 [0 0 0 0] ------- [6:255 6:254 32 0] 
s 2.504486542 _2_ AGT  --- 1566500011 diffusion 0 [0 0 0 0] ------- [2:254 2:255 32 0] 
r 2.504487542 _2_ AGT  --- 0 diffusion 0 [0 0 0 0] ------- [2:255 2:254 32 0] 
r 2.505025158 _4_ AGT  --- 611591126 diffusion 0 [0 0 0 0] ------- [4:255 4:254 32 0] 
r 2.505025306 _9_ AGT  --- 495722042 diffusion 0 [0 0 0 0] ------- [9:255 9:254 32 0] 
r 2.505025416 _2_ AGT  --- 580900452 diffusion 0 [0 0 0 0] ------- [2:255 2:254 32 0] 
r 2.505025563 _1_ AGT  --- 1225933903 diffusion 0 [0 0 0 0] ------- [1:255 1:254 32 0] 
r 2.505025732 _7_ AGT  --- 394266827 diffusion 0 [0 0 0 0] ------- [7:255 7:254 32 0] 
r 2.505025780 _6_ AGT  --- 557533827 diffusion 0 [0 0 0 0] ------- [6:255 6:254 32 0] 
s 2.590486542 _2_ AGT  --- 1566500012 diffusion 0 [0 0 0 0] ------- [2:254 2:255 32 0] 
r 2.591079870 _9_ AGT  --- 495722043 diffusion 0 [0 0 0 0] ------- [9:255 9:254 32 0] 
r 2.591079994 _3_ AGT  --- 1223941504 diffusion 0 [0 0 0 0] ------- [3:255 3:254 32 0] 
r 2.591080099 _7_ AGT  --- 394266828 diffusion 0 [0 0 0 0] ------- [7:255 7:254 32 0] 
r 2.591080132 _4_ AGT  --- 611591127 diffusion 0 [0 0 0 0] ------- [4:255 4:254 32 0] 
r 2.591080252 _1_ AGT  --- 1225933904 diffusion 0 [0 0 0 0] ------- [1:255 1:254 32 0] 
s 2.603486429 _1_ AGT  --- 528599279 diffusion 0 [0 0 0 0] ------- [1:254 1:255 32 0] 
r 2.604439906 _4_ AGT  --- 611591128 diffusion 0 [0 0 0 0] ------- [4:255 4:254 32 0] 
r 2.604440028 _3_ AGT  --- 1223941505 diffusion 0 [0 0 0 0] ------- [3:255 3:254 32 0] 
r 2.604440139 _2_ AGT  --- 580900453 diffusion 0 [0 0 0 0] ------- [2:255 2:254 32 0] 
s 2.615486488 _9_ AGT  --- 1003364344 diffusion 0 [0 0 0 0] ------- [9:254 9:255 32 0] 
r 2.616199816 _2_ AGT  --- 580900454 diffusion 0 [0 0 0 0] ------- [2:255 2:254 32 0] 
r 2.616199830 _3_ AGT  --- 1223941506 diffusion 0 [0 0 0 0] ------- [3:255 3:254 32 0] 
r 2.616199913 _7_ AGT  --- 394266829 diffusion 0 [0 0 0 0] ------- [7:255 7:254 32 0] 
r 2.616200023 _4_ AGT  --- 611591129 diffusion 0 [0 0 0 0] ------- [4:255 4:254 32 0] 
s 2.621026732 _7_ AGT  --- 1732828137 diffusion 0 [0 0 0 0] ------- [7:254 7:255 32 0] 
r 2.621760158 _9_ AGT  --- 495722044 diffusion 0 [0 0 0 0] ------- [9:255 9:254 32 0] 
r 2.621760289 _2_ AGT  --- 580900455 diffusion 0 [0 0 0 0] ------- [2:255 2:254 32 0] 
r 2.621760500 _3_ AGT  --- 1223941507 diffusion 0 [0 0 0 0] ------- [3:255 3:254 32 0] 
s 3.310001000 _7_ AGT  --- 1732828138 diffusion 0 [0 0 0 0] ------- [7:254 7:255 32 0] 
r 3.310002000 _7_ AGT  --- 394266830 diffusion 0 [0 0 0 0] ------- [7:255 7:254 32 0] 
s 3.425003000 _7_ AGT  --- 1732828139 diffusion 0 [0 0 0 0] ------- [7:254 7:255 32 0] 
r 3.426036426 _9_ AGT  --- 495722045 diffusion 0 [0 0 0 0] ------- [9:255 9:254 32 0] 
r 3.426036557 _2_ AGT  --- 580900456 diffusion 0 [0 0 0 0] ------- [2:255 2:254 32 0] 
r 3.426036768 _3_ AGT  --- 1223941508 diffusion 0 [0 0 0 0] ------- [3:255 3:254 32 0] 
s 3.426037557 _2_ AGT  --- 1566500013 diffusion 0 [0 0 0 0] ------- [2:254 2:255 32 0] 
r 3.426038557 _2_ AGT  --- 0 diffusion 0 [0 0 0 0] ------- [2:255 2:254 32 0] 
s 3.516037557 _2_ AGT  --- 1566500014 diffusion 0 [0 0 0 0] ------- [2:254 2:255 32 0] 
r 3.516810885 _9_ AGT  --- 495722046 diffusion 0 [0 0 0 0] ------- [9:255 9:254 32 0] 
r 3.516811009 _3_ AGT  --- 1223941509 diffusion 0 [0 0 0 0] ------- [3:255 3:254 32 0] 
r 3.516811114 _7_ AGT  --- 394266831 diffusion 0 [0 0 0 0] ------- [7:255 7:254 32 0] 
r 3.516811147 _4_ AGT  --- 611591130 diffusion 0 [0 0 0 0] ------- [4:255 4:254 32 0] 
r 3.516811267 _1_ AGT  --- 1225933905 diffusion 0 [0 0 0 0] ------- [1:255 1:254 32 0] 
s 3.522037426 _9_ AGT  --- 1003364345 diffusion 0 [0 0 0 0] ------- [9:254 9:255 32 0] 
r 3.522670754 _2_ AGT  --- 580900457 diffusion 0 [0 0 0 0] ------- [2:255 2:254 32 0] 
r 3.522670768 _3_ AGT  --- 1223941510 diffusion 0 [0 0 0 0] ------- [3:255 3:254 32 0] 
r 3.522670852 _7_ AGT  --- 394266832 diffusion 0 [0 0 0 0] ------- [7:255 7:254 32 0] 
r 3.522670961 _4_ AGT  --- 611591131 diffusion 0 [0 0 0 0] ------- [4:255 4:254 32 0] 
s 3.538037768 _3_ AGT  --- 1437693526 diffusion 0 [0 0 0 0] ------- [3:254 3:255 32 0] 
r 3.538710962 _4_ AGT  --- 611591132 diffusion 0 [0 0 0 0] ------- [4:255 4:254 32 0] 
r 3.538711110 _9_ AGT  --- 495722047 diffusion 0 [0 0 0 0] ------- [9:255 9:254 32 0] 
r 3.538711220 _2_ AGT  --- 580900458 diffusion 0 [0 0 0 0] ------- [2:255 2:254 32 0] 
r 3.538711367 _1_ AGT  --- 1225933906 diffusion 0 [0 0 0 0] ------- [1:255 1:254 32 0] 
r 3.538711536 _7_ AGT  --- 394266833 diffusion 0 [0 0 0 0] ------- [7:255 7:254 32 0] 
r 3.538711584 _6_ AGT  --- 557533828 diffusion 0 [0 0 0 0] ------- [6:255 6:254 32 0] 
s 3.607812267 _1_ AGT  --- 528599280 diffusion 0 [0 0 0 0] ------- [1:254 1:255 32 0] 
r 3.608845744 _4_ AGT  --- 611591133 diffusion 0 [0 0 0 0] ------- [4:255 4:254 32 0] 
r 3.608845866 _3_ AGT  --- 1223941511 diffusion 0 [0 0 0 0] ------- [3:255 3:254 32 0] 
r 3.608845977 _2_ AGT  --- 580900459 diffusion 0 [0 0 0 0] ------- [2:255 2:254 32 0] 
s 3.609812147 _4_ AGT  --- 300615856 diffusion 0 [0 0 0 0] ------- [4:254 4:255 32 0] 
r 3.610465341 _3_ AGT  --- 1223941512 diffusion 0 [0 0 0 0] ------- [3:255 3:254 32 0] 
r 3.610465624 _1_ AGT  --- 1225933907 diffusion 0 [0 0 0 0] ------- [1:255 1:254 32 0] 
r 3.610465683 _9_ AGT  --- 495722048 diffusion 0 [0 0 0 0] ------- [9:255 9:254 32 0] 
r 3.610465737 _2_ AGT  --- 580900460 diffusion 0 [0 0 0 0] ------- [2:255 2:254 32 0] 
r 3.610465951 _6_ AGT  --- 557533829 diffusion 0 [0 0 0 0] ------- [6:255 6:254 32 0] 
s 3.618712584 _6_ AGT  --- 1811076630 diffusion 0 [0 0 0 0] ------- [6:254 6:255 32 0] 
r 3.619645732 _8_ AGT  --- 1180591536 diffusion 0 [0 0 0 0] ------- [8:255 8:254 32 0] 
r 3.619646025 _0_ AGT  --- 2045655605 diffusion 0 [0 0 0 0] ------- [0:255 0:254 32 0] 
r 3.619646229 _5_ AGT  --- 885480292 diffusion 0 [0 0 0 0] ------- [5:255 5:254 32 0] 
r 3.619646389 _4_ AGT  --- 611591134 diffusion 0 [0 0 0 0] ------- [4:255 4:254 32 0] 
r 3.619646401 _3_ AGT  --- 1223941513 diffusion 0 [0 0 0 0] ------- [3:255 3:254 32 0] 
s 3.697647025 _0_ AGT  --- 1190071892 diffusion 0 [0 0 0 0] ------- [0:254 0:255 32 0] 
r 3.698400343 _8_ AGT  --- 1180591537 diffusion 0 [0 0 0 0] ------- [8:255 8:254 32 0] 
r 3.698400465 _6_ AGT  --- 557533830 diffusion 0 [0 0 0 0] ------- [6:255 6:254 32 0] 
s 3.701646732 _8_ AGT  --- 379185998 diffusion 0 [0 0 0 0] ------- [8:254 8:255 32 0] 
r 3.702359880 _6_ AGT  --- 557533831 diffusion 0 [0 0 0 0] ------- [6:255 6:254 32 0] 
r 3.702360050 _0_ AGT  --- 2045655606 diffusion 0 [0 0 0 0] ------- [0:255 0:254 32 0] 
r 3.702360456 _5_ AGT  --- 885480293 diffusion 0 [0 0 0 0] ------- [5:255 5:254 32 0] 
s 3.719647229 _5_ AGT  --- 905258842 diffusion 0 [0 0 0 0] ------- [5:254 5:255 32 0] 
r 3.720640874 _6_ AGT  --- 557533832 diffusion 0 [0 0 0 0] ------- [6:255 6:254 32 0] 
r 3.720640953 _8_ AGT  --- 1180591538 diffusion 0 [0 0 0 0] ------- [8:255 8:254 32 0] 
s 3.988001000 _7_ AGT  --- 1732828140 diffusion 0 [0 0 0 0] ------- [7:254 7:255 32 0] 
r 3.988002000 _7_ AGT  --- 394266834 diffusion 0 [0 0 0 0] ------- [7:255 7:254 32 0] 
s 4.112003000 _7_ AGT  --- 1732828141 diffusion 0 [0 0 0 0] ------- [7:254 7:255 32 0] 
r 4.112636426 _9_ AGT  --- 495722049 diffusion 0 [0 0 0 0] ------- [9:255 9:254 32 0] 
r 4.112636557 _2_ AGT  --- 580900461 diffusion 0 [0 0 0 0] ------- [2:255 2:254 32 0] 
r 4.112636768 _3_ AGT  --- 1223941514 diffusion 0 [0 0 0 0] ------- [3:255 3:254 32 0] 
s 4.197637557 _2_ AGT  --- 1566500015 diffusion 0 [0 0 0 0] ------- [2:254 2:255 32 0] 
r 4.198310885 _9_ AGT  --- 495722050 diffusion 0 [0 0 0 0] ------- [9:255 9:254 32 0] 
r 4.198311009 _3_ AGT  --- 1223941515 diffusion 0 [0 0 0 0] ------- [3:255 3:254 32 0] 
r 4.198311114 _7_ AGT  --- 394266835 diffusion 0 [0 0 0 0] ------- [7:255 7:254 32 0] 
r 4.198311147 _4_ AGT  --- 611591135 diffusion 0 [0 0 0 0] ------- [4:255 4:254 32 0] 
r 4.198311267 _1_ AGT  --- 1225933908 diffusion 0 [0 0 0 0] ------- [1:255 1:254 32 0] 
s 4.227637768 _3_ AGT  --- 1437693527 diffusion 0 [0 0 0 0] ------- [3:254 3:255 32 0] 
r 4.228350962 _4_ AGT  --- 611591136 diffusion 0 [0 0 0 0] ------- [4:255 4:254 32 0] 
r 4.228351110 _9_ AGT  --- 495722051 diffusion 0 [0 0 0 0] ------- [9:255 9:254 32 0] 
r 4.228351220 _2_ AGT  --- 580900462 diffusion 0 [0 0 0 0] ------- [2:255 2:254 32 0] 
r 4.228351367 _1_ AGT  --- 1225933909 diffusion 0 [0 0 0 0] ------- [1:255 1:254 32 0] 
r 4.228351536 _7_ AGT  --- 394266836 diffusion 0 [0 0 0 0] ------- [7:255 7:254 32 0] 
r 4.228351584 _6_ AGT  --- 557533833 diffusion 0 [0 0 0 0] ------- [6:255 6:254 32 0] 
s 4.230637426 _9_ AGT  --- 1003364346 diffusion 0 [0 0 0 0] ------- [9:254 9:255 32 0] 
r 4.231190754 _2_ AGT  --- 580900463 diffusion 0 [0 0 0 0] ------- [2:255 2:254 32 0] 
r 4.231190768 _3_ AGT  --- 1223941516 diffusion 0 [0 0 0 0] ------- [3:255 3:254 32 0] 
r 4.231190852 _7_ AGT  --- 394266837 diffusion 0 [0 0 0 0] ------- [7:255 7:254 32 0] 
r 4.231190961 _4_ AGT  --- 611591137 diffusion 0 [0 0 0 0] ------- [4:255 4:254 32 0] 
s 4.297312267 _1_ AGT  --- 528599281 diffusion 0 [0 0 0 0] ------- [1:254 1:255 32 0] 
r 4.298425744 _4_ AGT  --- 611591138 diffusion 0 [0 0 0 0] ------- [4:255 4:254 32 0] 
r 4.298425866 _3_ AGT  --- 1223941517 diffusion 0 [0 0 0 0] ------- [3:255 3:254 32 0] 
r 4.298425977 _2_ AGT  --- 580900464 diffusion 0 [0 0 0 0] ------- [2:255 2:254 32 0] 
s 4.310312147 _4_ AGT  --- 300615857 diffusion 0 [0 0 0 0] ------- [4:254 4:255 32 0] 
r 4.311085341 _3_ AGT  --- 1223941518 diffusion 0 [0 0 0 0] ------- [3:255 3:254 32 0] 
r 4.311085624 _1_ AGT  --- 1225933910 diffusion 0 [0 0 0 0] ------- [1:255 1:254 32 0] 
r 4.311085683 _9_ AGT  --- 495722052 diffusion 0 [0 0 0 0] ------- [9:255 9:254 32 0] 
r 4.311085737 _2_ AGT  --- 580900465 diffusion 0 [0 0 0 0] ------- [2:255 2:254 32 0] 
r 4.311085951 _6_ AGT  --- 557533834 diffusion 0 [0 0 0 0] ------- [6:255 6:254 32 0] 
s 4.321352584 _6_ AGT  --- 1811076631 diffusion 0 [0 0 0 0] ------- [6:254 6:255 32 0] 
r 4.322105732 _8_ AGT  --- 1180591539 diffusion 0 [0 0 0 0] ------- [8:255 8:254 32 0] 
r 4.322106025 _0_ AGT  --- 2045655607 diffusion 0 [0 0 0 0] ------- [0:255 0:254 32 0] 
r 4.322106229 _5_ AGT  --- 885480294 diffusion 0 [0 0 0 0] ------- [5:255 5:254 32 0] 
r 4.322106389 _4_ AGT  --- 611591139 diffusion 0 [0 0 0 0] ------- [4:255 4:254 32 0] 
r 4.322106401 _3_ AGT  --- 1223941519 diffusion 0 [0 0 0 0] ------- [3:255 3:254 32 0] 
s 4.410001000 _6_ AGT  --- 1811076632 diffusion 0 [0 0 0 0] ------- [6:254 6:255 32 0] 
r 4.410002000 _6_ AGT  --- 557533835 diffusion 0 [0 0 0 0] ------- [6:255 6:254 32 0] 
s 4.413107229 _5_ AGT  --- 905258843 diffusion 0 [0 0 0 0] ------- [5:254 5:255 32 0] 
r 4.414140874 _6_ AGT  --- 557533836 diffusion 0 [0 0 0 0] ------- [6:255 6:254 32 0] 
r 4.414140953 _8_ AGT  --- 1180591540 diffusion 0 [0 0 0 0] ------- [8:255 8:254 32 0] 
s 4.421107025 _0_ AGT  --- 1190071893 diffusion 0 [0 0 0 0] ------- [0:254 0:255 32 0] 
r 4.421740343 _8_ AGT  --- 1180591541 diffusion 0 [0 0 0 0] ------- [8:255 8:254 32 0] 
r 4.421740465 _6_ AGT  --- 557533837 diffusion 0 [0 0 0 0] ------- [6:255 6:254 32 0] 
s 4.442106732 _8_ AGT  --- 379185999 diffusion 0 [0 0 0 0] ------- [8:254 8:255 32 0] 
r 4.443159880 _6_ AGT  --- 557533838 diffusion 0 [0 0 0 0] ------- [6:255 6:254 32 0] 
r 4.443160050 _0_ AGT  --- 2045655608 diffusion 0 [0 0 0 0] ------- [0:255 0:254 32 0] 
r 4.443160456 _5_ AGT  --- 885480295 diffusion 0 [0 0 0 0] ------- [5:255 5:254 32 0] 
s 4.522003000 _6_ AGT  --- 1811076633 diffusion 0 [0 0 0 0] ------- [6:254 6:255 32 0] 
r 4.522896148 _8_ AGT  --- 1180591542 diffusion 0 [0 0 0 0] ------- [8:255 8:254 32 0] 
r 4.522896440 _0_ AGT  --- 2045655609 diffusion 0 [0 0 0 0] ------- [0:255 0:254 32 0] 
r 4.522896645 _5_ AGT  --- 885480296 diffusion 0 [0 0 0 0] ------- [5:255 5:254 32 0] 
r 4.522896804 _4_ AGT  --- 611591140 diffusion 0 [0 0 0 0] ------- [4:255 4:254 32 0] 
r 4.522896816 _3_ AGT  --- 1223941520 diffusion 0 [0 0 0 0] ------- [3:255 3:254 32 0] 
s 4.603897645 _5_ AGT  --- 905258844 diffusion 0 [0 0 0 0] ------- [5:254 5:255 32 0] 
s 4.603897804 _4_ AGT  --- 300615858 diffusion 0 [0 0 0 0] ------- [4:254 4:255 32 0] 
r 4.604730998 _3_ AGT  --- 1223941521 diffusion 0 [0 0 0 0] ------- [3:255 3:254 32 0] 
r 4.604731281 _1_ AGT  --- 1225933911 diffusion 0 [0 0 0 0] ------- [1:255 1:254 32 0] 
r 4.604731340 _9_ AGT  --- 495722053 diffusion 0 [0 0 0 0] ------- [9:255 9:254 32 0] 
r 4.604731394 _2_ AGT  --- 580900466 diffusion 0 [0 0 0 0] ------- [2:255 2:254 32 0] 
r 4.604731608 _6_ AGT  --- 557533839 diffusion 0 [0 0 0 0] ------- [6:255 6:254 32 0] 
s 4.604732394 _2_ AGT  --- 1566500016 diffusion 0 [0 0 0 0] ------- [2:254 2:255 32 0] 
r 4.604733394 _2_ AGT  --- 0 diffusion 0 [0 0 0 0] ------- [2:255 2:254 32 0] 
r 4.606634757 _6_ AGT  --- 557533840 diffusion 0 [0 0 0 0] ------- [6:255 6:254 32 0] 
r 4.606634836 _8_ AGT  --- 1180591543 diffusion 0 [0 0 0 0] ------- [8:255 8:254 32 0] 
s 4.620897148 _8_ AGT  --- 379186000 diffusion 0 [0 0 0 0] ------- [8:254 8:255 32 0] 
r 4.621750296 _6_ AGT  --- 557533841 diffusion 0 [0 0 0 0] ------- [6:255 6:254 32 0] 
r 4.621750466 _0_ AGT  --- 2045655610 diffusion 0 [0 0 0 0] ------- [0:255 0:254 32 0] 
r 4.621750872 _5_ AGT  --- 885480297 diffusion 0 [0 0 0 0] ------- [5:255 5:254 32 0] 
s 4.622897440 _0_ AGT  --- 1190071894 diffusion 0 [0 0 0 0] ------- [0:254 0:255 32 0] 
r 4.623610758 _8_ AGT  --- 1180591544 diffusion 0 [0 0 0 0] ------- [8:255 8:254 32 0] 
r 4.623610881 _6_ AGT  --- 557533842 diffusion 0 [0 0 0 0] ------- [6:255 6:254 32 0] 
s 4.636897816 _3_ AGT  --- 1437693528 diffusion 0 [0 0 0 0] ------- [3:254 3:255 32 0] 
r 4.637691010 _4_ AGT  --- 611591141 diffusion 0 [0 0 0 0] ------- [4:255 4:254 32 0] 
r 4.637691159 _9_ AGT  --- 495722054 diffusion 0 [0 0 0 0] ------- [9:255 9:254 32 0] 
r 4.637691269 _2_ AGT  --- 580900467 diffusion 0 [0 0 0 0] ------- [2:255 2:254 32 0] 
r 4.637691415 _1_ AGT  --- 1225933912 diffusion 0 [0 0 0 0] ------- [1:255 1:254 32 0] 
r 4.637691584 _7_ AGT  --- 394266838 diffusion 0 [0 0 0 0] ------- [7:255 7:254 32 0] 
r 4.637691633 _6_ AGT  --- 557533843 diffusion 0 [0 0 0 0] ------- [6:255 6:254 32 0] 
s 4.704732281 _1_ AGT  --- 528599282 diffusion 0 [0 0 0 0] ------- [1:254 1:255 32 0] 
s 4.705732394 _2_ AGT  --- 1566500017 diffusion 0 [0 0 0 0] ------- [2:254 2:255 32 0] 
r 4.705785758 _4_ AGT  --- 611591142 diffusion 0 [0 0 0 0] ------- [4:255 4:254 32 0] 
r 4.705785880 _3_ AGT  --- 1223941522 diffusion 0 [0 0 0 0] ------- [3:255 3:254 32 0] 
r 4.705785991 _2_ AGT  --- 580900468 diffusion 0 [0 0 0 0] ------- [2:255 2:254 32 0] 
r 4.706668319 _9_ AGT  --- 495722055 diffusion 0 [0 0 0 0] ------- [9:255 9:254 32 0] 
r 4.706668443 _3_ AGT  --- 1223941523 diffusion 0 [0 0 0 0] ------- [3:255 3:254 32 0] 
r 4.706668548 _7_ AGT  --- 394266839 diffusion 0 [0 0 0 0] ------- [7:255 7:254 32 0] 
r 4.706668581 _4_ AGT  --- 611591143 diffusion 0 [0 0 0 0] ------- [4:255 4:254 32 0] 
r 4.706668701 _1_ AGT  --- 1225933913 diffusion 0 [0 0 0 0] ------- [1:255 1:254 32 0] 
s 4.719692584 _7_ AGT  --- 1732828142 diffusion 0 [0 0 0 0] ------- [7:254 7:255 32 0] 
r 4.720666010 _9_ AGT  --- 495722056 diffusion 0 [0 0 0 0] ------- [9:255 9:254 32 0] 
r 4.720666142 _2_ AGT  --- 580900469 diffusion 0 [0 0 0 0] ------- [2:255 2:254 32 0] 
r 4.720666352 _3_ AGT  --- 1223941524 diffusion 0 [0 0 0 0] ------- [3:255 3:254 32 0] 
s 4.723732340 _9_ AGT  --- 1003364347 diffusion 0 [0 0 0 0] ------- [9:254 9:255 32 0] 
r 4.724545668 _2_ AGT  --- 580900470 diffusion 0 [0 0 0 0] ------- [2:255 2:254 32 0] 
r 4.724545682 _3_ AGT  --- 1223941525 diffusion 0 [0 0 0 0] ------- [3:255 3:254 32 0] 
r 4.724545766 _7_ AGT  --- 394266840 diffusion 0 [0 0 0 0] ------- [7:255 7:254 32 0] 
r 4.724545875 _4_ AGT  --- 611591144 diffusion 0 [0 0 0 0] ------- [4:255 4:254 32 0] 
s 5.123001000 _2_ AGT  --- 1566500018 diffusion 0 [0 0 0 0] ------- [2:254 2:255 32 0] 
r 5.123002000 _2_ AGT  --- 580900471 diffusion 0 [0 0 0 0] ------- [2:255 2:254 32 0] 
s 5.123003000 _2_ AGT  --- 1566500019 diffusion 0 [0 0 0 0] ------- [2:254 2:255 32 0] 
s 5.123003000 _2_ AGT  --- 1566500020 diffusion 0 [0 0 0 0] ------- [2:254 2:255 32 0] 
s 5.123003000 _2_ AGT  --- 1566500021 diffusion 0 [0 0 0 0] ------- [2:254 2:255 32 0] 
r 5.128714900 _7_ AGT  --- 394266841 diffusion 0 [0 0 0 0] ------- [7:255 7:254 32 0] 
s 5.128715900 _7_ AGT  --- 1732828143 diffusion 0 [0 0 0 0] ------- [7:254 7:255 32 0] 
r 5.128716900 _7_ AGT  --- 1566500018 diffusion 0 [0 0 0 0] ------- [7:255 7:254 32 0] 
r 5.133021294 _9_ AGT  --- 495722057 diffusion 0 [0 0 0 0] ------- [9:255 9:254 32 0] 
s 5.133022294 _9_ AGT  --- 1003364348 diffusion 0 [0 0 0 0] ------- [9:254 9:255 32 0] 
r 5.133023294 _9_ AGT  --- 1566500018 diffusion 0 [0 0 0 0] ------- [9:255 9:254 32 0] 
r 5.136749370 _4_ AGT  --- 611591145 diffusion 0 [0 0 0 0] ------- [4:255 4:254 32 0] 
s 5.136750370 _4_ AGT  --- 300615859 diffusion 0 [0 0 0 0] ------- [4:254 4:255 32 0] 
r 5.141849999 _6_ AGT  --- 557533844 diffusion 0 [0 0 0 0] ------- [6:255 6:254 32 0] 
s 5.141850999 _6_ AGT  --- 1811076634 diffusion 0 [0 0 0 0] ------- [6:254 6:255 32 0] 
s 5.141850999 _6_ AGT  --- 1811076635 diffusion 0 [0 0 0 0] ------- [6:254 6:255 32 0] 
r 5.141851999 _6_ AGT  --- 1566500018 diffusion 0 [0 0 0 0] ------- [6:255 6:254 32 0] 
r 5.146886034 _8_ AGT  --- 1180591545 diffusion 0 [0 0 0 0] ------- [8:255 8:254 32 0] 
s 5.146887034 _8_ AGT  --- 379186001 diffusion 0 [0 0 0 0] ------- [8:254 8:255 32 0] 
r 5.146888034 _8_ AGT  --- 1566500018 diffusion 0 [0 0 0 0] ------- [8:255 8:254 32 0] 
s 10.123001000 _2_ AGT  --- 1566500022 diffusion 0 [0 0 0 0] ------- [2:254 2:255 32 0] 
r 10.123002000 _2_ AGT  --- 580900472 diffusion 0 [0 0 0 0] ------- [2:255 2:254 32 0] 
s 10.123003000 _2_ AGT  --- 1566500023 diffusion 0 [0 0 0 0] ------- [2:254 2:255 32 0] 
s 10.123003000 _2_ AGT  --- 1566500024 diffusion 0 [0 0 0 0] ------- [2:254 2:255 32 0] 
s 10.123003000 _2_ AGT  --- 1566500025 diffusion 0 [0 0 0 0] ------- [2:254 2:255 32 0] 
r 10.124844984 _9_ AGT  --- 495722058 diffusion 0 [0 0 0 0] ------- [9:255 9:254 32 0] 
s 10.124845984 _9_ AGT  --- 1003364349 diffusion 0 [0 0 0 0] ------- [9:254 9:255 32 0] 
r 10.124846984 _9_ AGT  --- 1566500022 diffusion 0 [0 0 0 0] ------- [9:255 9:254 32 0] 
r 10.126867082 _4_ AGT  --- 611591146 diffusion 0 [0 0 0 0] ------- [4:255 4:254 32 0] 
s 10.126868082 _4_ AGT  --- 300615860 diffusion 0 [0 0 0 0] ------- [4:254 4:255 32 0] 
r 10.128469344 _7_ AGT  --- 394266842 diffusion 0 [0 0 0 0] ------- [7:255 7:254 32 0] 
s 10.128470344 _7_ AGT  --- 1732828144 diffusion 0 [0 0 0 0] ------- [7:254 7:255 32 0] 
r 10.128471344 _7_ AGT  --- 1566500022 diffusion 0 [0 0 0 0] ------- [7:255 7:254 32 0] 
r 10.130412717 _6_ AGT  --- 557533845 diffusion 0 [0 0 0 0] ------- [6:255 6:254 32 0] 
s 10.130413717 _6_ AGT  --- 1811076636 diffusion 0 [0 0 0 0] ------- [6:254 6:255 32 0] 
s 10.130413717 _6_ AGT  --- 1811076637 diffusion 0 [0 0 0 0] ------- [6:254 6:255 32 0] 
r 10.130414717 _6_ AGT  --- 1566500022 diffusion 0 [0 0 0 0] ------- [6:255 6:254 32 0] 
r 10.132213161 _8_ AGT  --- 1180591546 diffusion 0 [0 0 0 0] ------- [8:255 8:254 32 0] 
s 10.132214161 _8_ AGT  --- 379186002 diffusion 0 [0 0 0 0] ------- [8:254 8:255 32 0] 
r 10.132215161 _8_ AGT  --- 1566500022 diffusion 0 [0 0 0 0] ------- [8:255 8:254 32 0] 
s 15.123001000 _2_ AGT  --- 1566500026 diffusion 0 [0 0 0 0] ------- [2:254 2:255 32 0] 
r 15.123002000 _2_ AGT  --- 580900473 diffusion 0 [0 0 0 0] ------- [2:255 2:254 32 0] 
s 15.123003000 _2_ AGT  --- 1566500027 diffusion 0 [0 0 0 0] ------- [2:254 2:255 32 0] 
s 15.123003000 _2_ AGT  --- 1566500028 diffusion 0 [0 0 0 0] ------- [2:254 2:255 32 0] 
s 15.123003000 _2_ AGT  --- 1566500029 diffusion 0 [0 0 0 0] ------- [2:254 2:255 32 0] 
r 15.124824984 _9_ AGT  --- 495722059 diffusion 0 [0 0 0 0] ------- [9:255 9:254 32 0] 
s 15.124825984 _9_ AGT  --- 1003364350 diffusion 0 [0 0 0 0] ------- [9:254 9:255 32 0] 
r 15.124826984 _9_ AGT  --- 1566500026 diffusion 0 [0 0 0 0] ------- [9:255 9:254 32 0] 
r 15.126587082 _4_ AGT  --- 611591147 diffusion 0 [0 0 0 0] ------- [4:255 4:254 32 0] 
s 15.126588082 _4_ AGT  --- 300615861 diffusion 0 [0 0 0 0] ------- [4:254 4:255 32 0] 
r 15.128509344 _7_ AGT  --- 394266843 diffusion 0 [0 0 0 0] ------- [7:255 7:254 32 0] 
s 15.128510344 _7_ AGT  --- 1732828145 diffusion 0 [0 0 0 0] ------- [7:254 7:255 32 0] 
r 15.128511344 _7_ AGT  --- 1566500026 diffusion 0 [0 0 0 0] ------- [7:255 7:254 32 0] 
r 15.130612717 _6_ AGT  --- 557533846 diffusion 0 [0 0 0 0] ------- [6:255 6:254 32 0] 
s 15.130613717 _6_ AGT  --- 1811076638 diffusion 0 [0 0 0 0] ------- [6:254 6:255 32 0] 
s 15.130613717 _6_ AGT  --- 1811076639 diffusion 0 [0 0 0 0] ------- [6:254 6:255 32 0] 
r 15.130614717 _6_ AGT  --- 1566500026 diffusion 0 [0 0 0 0] ------- [6:255 6:254 32 0] 
r 15.132133161 _8_ AGT  --- 1180591547 diffusion 0 [0 0 0 0] ------- [8:255 8:254 32 0] 
s 15.132134161 _8_ AGT  --- 379186003 diffusion 0 [0 0 0 0] ------- [8:254 8:255 32 0] 
r 15.132135161 _8_ AGT  --- 1566500026 diffusion 0 [0 0 0 0] ------- [8:255 8:254 32 0] 
s 17.736001000 _8_ AGT  --- 379186004 diffusion 0 [0 0 0 0] ------- [8:254 8:255 32 0] 
r 17.736002000 _8_ AGT  --- 1180591548 diffusion 0 [0 0 0 0] ------- [8:255 8:254 32 0] 
s 17.856003000 _8_ AGT  --- 379186005 diffusion 0 [0 0 0 0] ------- [8:254 8:255 32 0] 
r 17.856616148 _6_ AGT  --- 557533847 diffusion 0 [0 0 0 0] ------- [6:255 6:254 32 0] 
r 17.856616318 _0_ AGT  --- 2045655611 diffusion 0 [0 0 0 0] ------- [0:255 0:254 32 0] 
r 17.856616724 _5_ AGT  --- 885480298 diffusion 0 [0 0 0 0] ------- [5:255 5:254 32 0] 
s 17.938617724 _5_ AGT  --- 905258845 diffusion 0 [0 0 0 0] ------- [5:254 5:255 32 0] 
r 17.939391369 _6_ AGT  --- 557533848 diffusion 0 [0 0 0 0] ------- [6:255 6:254 32 0] 
r 17.939391448 _8_ AGT  --- 1180591549 diffusion 0 [0 0 0 0] ------- [8:255 8:254 32 0] 
s 17.941617148 _6_ AGT  --- 1811076640 diffusion 0 [0 0 0 0] ------- [6:254 6:255 32 0] 
r 17.942370296 _8_ AGT  --- 1180591550 diffusion 0 [0 0 0 0] ------- [8:255 8:254 32 0] 
r 17.942370588 _0_ AGT  --- 2045655612 diffusion 0 [0 0 0 0] ------- [0:255 0:254 32 0] 