s 0.000001000 _0_ AGT  --- 1190071889 diffusion 0 [0 0 0 0] ------- [0:254 0:255 32 0] 
s 0.000001000 _1_ AGT  --- 528599277 diffusion 0 [0 0 0 0] ------- [1:254 1:255 32 0] 
s 0.000001000 _2_ AGT  --- 1566500007 diffusion 0 [0 0 0 0] ------- [2:254 2:255 32 0] 
s 0.000001000 _3_ AGT  --- 1437693523 diffusion 0 [0 0 0 0] ------- [3:254 3:255 32 0] 
s 0.000001000 _4_ AGT  --- 300615853 diffusion 0 [0 0 0 0] ------- [4:254 4:255 32 0] 
s 0.000001000 _5_ AGT  --- 905258839 diffusion 0 [0 0 0 0] ------- [5:254 5:255 32 0] 
s 0.000001000 _6_ AGT  --- 1811076627 diffusion 0 [0 0 0 0] ------- [6:254 6:255 32 0] 
s 0.000001000 _7_ AGT  --- 1732828135 diffusion 0 [0 0 0 0] ------- [7:254 7:255 32 0] 
s 0.000001000 _8_ AGT  --- 379185994 diffusion 0 [0 0 0 0] ------- [8:254 8:255 32 0] 
s 0.000001000 _9_ AGT  --- 1003364341 diffusion 0 [0 0 0 0] ------- [9:254 9:255 32 0] 
s 0.133001000 _2_ AGT  --- 1566500008 diffusion 0 [0 0 0 0] ------- [2:254 2:255 32 0] 
r 0.133002000 _2_ AGT  --- 580900445 diffusion 0 [0 0 0 0] ------- [2:255 2:254 32 0] 
s 1.110001000 _9_ AGT  --- 1003364342 diffusion 0 [0 0 0 0] ------- [9:254 9:255 32 0] 
r 1.110002000 _9_ AGT  --- 495722036 diffusion 0 [0 0 0 0] ------- [9:255 9:254 32 0] 
s 1.199003000 _9_ AGT  --- 1003364343 diffusion 0 [0 0 0 0] ------- [9:254 9:255 32 0] 
r 1.199656328 _2_ AGT  --- 580900446 diffusion 0 [0 0 0 0] ------- [2:255 2:254 32 0] 
r 1.199656342 _3_ AGT  --- 1223941496 diffusion 0 [0 0 0 0] ------- [3:255 3:254 32 0] 
r 1.199656426 _7_ AGT  --- 394266824 diffusion 0 [0 0 0 0] ------- [7:255 7:254 32 0] 
r 1.199656536 _4_ AGT  --- 611591120 diffusion 0 [0 0 0 0] ------- [4:255 4:254 32 0] 
s 1.199657328 _2_ AGT  --- 1566500009 diffusion 0 [0 0 0 0] ------- [2:254 2:255 32 0] 
r 1.199658328 _2_ AGT  --- 0 diffusion 0 [0 0 0 0] ------- [2:255 2:254 32 0] 
s 1.288657536 _4_ AGT  --- 300615854 diffusion 0 [0 0 0 0] ------- [4:254 4:255 32 0] 
r 1.289510730 _3_ AGT  --- 1223941497 diffusion 0 [0 0 0 0] ------- [3:255 3:254 32 0] 
r 1.289511012 _1_ AGT  --- 1225933899 diffusion 0 [0 0 0 0] ------- [1:255 1:254 32 0] 
r 1.289511071 _9_ AGT  --- 495722037 diffusion 0 [0 0 0 0] ------- [9:255 9:254 32 0] 
r 1.289511126 _2_ AGT  --- 580900447 diffusion 0 [0 0 0 0] ------- [2:255 2:254 32 0] 
r 1.289511340 _6_ AGT  --- 557533818 diffusion 0 [0 0 0 0] ------- [6:255 6:254 32 0] 
s 1.305657342 _3_ AGT  --- 1437693524 diffusion 0 [0 0 0 0] ------- [3:254 3:255 32 0] 
r 1.306390536 _4_ AGT  --- 611591121 diffusion 0 [0 0 0 0] ------- [4:255 4:254 32 0] 
r 1.306390685 _9_ AGT  --- 495722038 diffusion 0 [0 0 0 0] ------- [9:255 9:254 32 0] 
r 1.306390795 _2_ AGT  --- 580900448 diffusion 0 [0 0 0 0] ------- [2:255 2:254 32 0] 
r 1.306390941 _1_ AGT  --- 1225933900 diffusion 0 [0 0 0 0] ------- [1:255 1:254 32 0] 
r 1.306391110 _7_ AGT  --- 394266825 diffusion 0 [0 0 0 0] ------- [7:255 7:254 32 0] 
r 1.306391159 _6_ AGT  --- 557533819 diffusion 0 [0 0 0 0] ------- [6:255 6:254 32 0] 
s 1.316657426 _7_ AGT  --- 1732828136 diffusion 0 [0 0 0 0] ------- [7:254 7:255 32 0] 
s 1.317657328 _2_ AGT  --- 1566500010 diffusion 0 [0 0 0 0] ------- [2:254 2:255 32 0] 
r 1.317750852 _9_ AGT  --- 495722039 diffusion 0 [0 0 0 0] ------- [9:255 9:254 32 0] 
r 1.317750983 _2_ AGT  --- 580900449 diffusion 0 [0 0 0 0] ------- [2:255 2:254 32 0] 
r 1.317751194 _3_ AGT  --- 1223941498 diffusion 0 [0 0 0 0] ------- [3:255 3:254 32 0] 
r 1.318713311 _9_ AGT  --- 495722040 diffusion 0 [0 0 0 0] ------- [9:255 9:254 32 0] 
r 1.318713435 _3_ AGT  --- 1223941499 diffusion 0 [0 0 0 0] ------- [3:255 3:254 32 0] 
r 1.318713540 _7_ AGT  --- 394266826 diffusion 0 [0 0 0 0] ------- [7:255 7:254 32 0] 
r 1.318713573 _4_ AGT  --- 611591122 diffusion 0 [0 0 0 0] ------- [4:255 4:254 32 0] 
r 1.318713693 _1_ AGT  --- 1225933901 diffusion 0 [0 0 0 0] ------- [1:255 1:254 32 0] 
s 1.385512340 _6_ AGT  --- 1811076628 diffusion 0 [0 0 0 0] ------- [6:254 6:255 32 0] 
r 1.386045488 _8_ AGT  --- 1180591529 diffusion 0 [0 0 0 0] ------- [8:255 8:254 32 0] 
r 1.386045780 _0_ AGT  --- 2045655601 diffusion 0 [0 0 0 0] ------- [0:255 0:254 32 0] 
r 1.386045985 _5_ AGT  --- 885480288 diffusion 0 [0 0 0 0] ------- [5:255 5:254 32 0] 
r 1.386046144 _4_ AGT  --- 611591123 diffusion 0 [0 0 0 0] ------- [4:255 4:254 32 0] 
r 1.386046156 _3_ AGT  --- 1223941500 diffusion 0 [0 0 0 0] ------- [3:255 3:254 32 0] 
s 1.401512012 _1_ AGT  --- 528599278 diffusion 0 [0 0 0 0] ------- [1:254 1:255 32 0] 
r 1.402545489 _4_ AGT  --- 611591124 diffusion 0 [0 0 0 0] ------- [4:255 4:254 32 0] 
r 1.402545611 _3_ AGT  --- 1223941501 diffusion 0 [0 0 0 0] ------- [3:255 3:254 32 0] 
r 1.402545722 _2_ AGT  --- 580900450 diffusion 0 [0 0 0 0] ------- [2:255 2:254 32 0] 
s 1.484046985 _5_ AGT  --- 905258840 diffusion 0 [0 0 0 0] ------- [5:254 5:255 32 0] 
r 1.485040629 _6_ AGT  --- 557533820 diffusion 0 [0 0 0 0] ------- [6:255 6:254 32 0] 
r 1.485040708 _8_ AGT  --- 1180591530 diffusion 0 [0 0 0 0] ------- [8:255 8:254 32 0] 
s 1.486046780 _0_ AGT  --- 1190071890 diffusion 0 [0 0 0 0] ------- [0:254 0:255 32 0] 
r 1.487040098 _8_ AGT  --- 1180591531 diffusion 0 [0 0 0 0] ------- [8:255 8:254 32 0] 
r 1.487040221 _6_ AGT  --- 557533821 diffusion 0 [0 0 0 0] ------- [6:255 6:254 32 0] 
s 1.505046488 _8_ AGT  --- 379185995 diffusion 0 [0 0 0 0] ------- [8:254 8:255 32 0] 
r 1.505839636 _6_ AGT  --- 557533822 diffusion 0 [0 0 0 0] ------- [6:255 6:254 32 0] 
r 1.505839806 _0_ AGT  --- 2045655602 diffusion 0 [0 0 0 0] ------- [0:255 0:254 32 0] 
r 1.505840212 _5_ AGT  --- 885480289 diffusion 0 [0 0 0 0] ------- [5:255 5:254 32 0] 
s 2.210001000 _8_ AGT  --- 379185996 diffusion 0 [0 0 0 0] ------- [8:254 8:255 32 0] 
r 2.210002000 _8_ AGT  --- 1180591532 diffusion 0 [0 0 0 0] ------- [8:255 8:254 32 0] 
s 2.323003000 _8_ AGT  --- 379185997 diffusion 0 [0 0 0 0] ------- [8:254 8:255 32 0] 
r 2.323956148 _6_ AGT  --- 557533823 diffusion 0 [0 0 0 0] ------- [6:255 6:254 32 0] 
r 2.323956318 _0_ AGT  --- 2045655603 diffusion 0 [0 0 0 0] ------- [0:255 0:254 32 0] 
r 2.323956724 _5_ AGT  --- 885480290 diffusion 0 [0 0 0 0] ------- [5:255 5:254 32 0] 
s 2.408957724 _5_ AGT  --- 905258841 diffusion 0 [0 0 0 0] ------- [5:254 5:255 32 0] 
r 2.409851369 _6_ AGT  --- 557533824 diffusion 0 [0 0 0 0] ------- [6:255 6:254 32 0] 
r 2.409851448 _8_ AGT  --- 1180591533 diffusion 0 [0 0 0 0] ------- [8:255 8:254 32 0] 
s 2.414957148 _6_ AGT  --- 1811076629 diffusion 0 [0 0 0 0] ------- [6:254 6:255 32 0] 
r 2.415550296 _8_ AGT  --- 1180591534 diffusion 0 [0 0 0 0] ------- [8:255 8:254 32 0] 
r 2.415550588 _0_ AGT  --- 2045655604 diffusion 0 [0 0 0 0] ------- [0:255 0:254 32 0] 
r 2.415550793 _5_ AGT  --- 885480291 diffusion 0 [0 0 0 0] ------- [5:255 5:254 32 0] 
r 2.415550952 _4_ AGT  --- 611591125 diffusion 0 [0 0 0 0] ------- [4:255 4:254 32 0] 
r 2.415550964 _3_ AGT  --- 1223941502 diffusion 0 [0 0 0 0] ------- [3:255 3:254 32 0] 
s 2.420957318 _0_ AGT  --- 1190071891 diffusion 0 [0 0 0 0] ------- [0:254 0:255 32 0] 
r 2.421990636 _8_ AGT  --- 1180591535 diffusion 0 [0 0 0 0] ------- [8:255 8:254 32 0] 
r 2.421990758 _6_ AGT  --- 557533825 diffusion 0 [0 0 0 0] ------- [6:255 6:254 32 0] 
s 2.523551952 _4_ AGT  --- 300615855 diffusion 0 [0 0 0 0] ------- [4:254 4:255 32 0] 
s 2.523551964 _3_ AGT  --- 1437693525 diffusion 0 [0 0 0 0] ------- [3:254 3:255 32 0] 
r 2.524245158 _4_ AGT  --- 611591126 diffusion 0 [0 0 0 0] ------- [4:255 4:254 32 0] 
r 2.524245306 _9_ AGT  --- 495722041 diffusion 0 [0 0 0 0] ------- [9:255 9:254 32 0] 
r 2.524245416 _2_ AGT  --- 580900451 diffusion 0 [0 0 0 0] ------- [2:255 2:254 32 0] 
r 2.524245563 _1_ AGT  --- 1225933902 diffusion 0 [0 0 0 0] ------- [1:255 1:254 32 0] 
r 2.524245732 _7_ AGT  --- 394266827 diffusion 0 [0 0 0 0] ------- [7:255 7:254 32 0] 
r 2.524245780 _6_ AGT  --- 557533826 diffusion 0 [0 0 0 0] ------- [6:255 6:254 32 0] 
r 2.525667353 _3_ AGT  --- 1223941503 diffusion 0 [0 0 0 0] ------- [3:255 3:254 32 0] 
r 2.525667635 _1_ AGT  --- 1225933903 diffusion 0 [0 0 0 0] ------- [1:255 1:254 32 0] 
r 2.525667694 _9_ AGT  --- 495722042 diffusion 0 [0 0 0 0] ------- [9:255 9:254 32 0] 
r 2.525667748 _2_ AGT  --- 580900452 diffusion 0 [0 0 0 0] ------- [2:255 2:254 32 0] 
r 2.525667963 _6_ AGT  --- 557533827 diffusion 0 [0 0 0 0] ------- [6:255 6:254 32 0] 
s 2.611246306 _9_ AGT  --- 1003364344 diffusion 0 [0 0 0 0] ------- [9:254 9:255 32 0] 
r 2.612159634 _2_ AGT  --- 580900453 diffusion 0 [0 0 0 0] ------- [2:255 2:254 32 0] 
r 2.612159649 _3_ AGT  --- 1223941504 diffusion 0 [0 0 0 0] ------- [3:255 3:254 32 0] 
r 2.612159732 _7_ AGT  --- 394266828 diffusion 0 [0 0 0 0] ------- [7:255 7:254 32 0] 
r 2.612159842 _4_ AGT  --- 611591127 diffusion 0 [0 0 0 0] ------- [4:255 4:254 32 0] 
s 2.623246563 _1_ AGT  --- 528599279 diffusion 0 [0 0 0 0] ------- [1:254 1:255 32 0] 
r 2.623840040 _4_ AGT  --- 611591128 diffusion 0 [0 0 0 0] ------- [4:255 4:254 32 0] 
r 2.623840162 _3_ AGT  --- 1223941505 diffusion 0 [0 0 0 0] ------- [3:255 3:254 32 0] 
r 2.623840273 _2_ AGT  --- 580900454 diffusion 0 [0 0 0 0] ------- [2:255 2:254 32 0] 
s 2.635246732 _7_ AGT  --- 1732828137 diffusion 0 [0 0 0 0] ------- [7:254 7:255 32 0] 
r 2.636200158 _9_ AGT  --- 495722043 diffusion 0 [0 0 0 0] ------- [9:255 9:254 32 0] 
r 2.636200289 _2_ AGT  --- 580900455 diffusion 0 [0 0 0 0] ------- [2:255 2:254 32 0] 
r 2.636200500 _3_ AGT  --- 1223941506 diffusion 0 [0 0 0 0] ------- [3:255 3:254 32 0] 
s 2.647246416 _2_ AGT  --- 1566500011 diffusion 0 [0 0 0 0] ------- [2:254 2:255 32 0] 
r 2.647959744 _9_ AGT  --- 495722044 diffusion 0 [0 0 0 0] ------- [9:255 9:254 32 0] 
r 2.647959869 _3_ AGT  --- 1223941507 diffusion 0 [0 0 0 0] ------- [3:255 3:254 32 0] 
r 2.647959974 _7_ AGT  --- 394266829 diffusion 0 [0 0 0 0] ------- [7:255 7:254 32 0] 
r 2.647960007 _4_ AGT  --- 611591129 diffusion 0 [0 0 0 0] ------- [4:255 4:254 32 0] 
r 2.647960126 _1_ AGT  --- 1225933904 diffusion 0 [0 0 0 0] ------- [1:255 1:254 32 0] 
s 3.310001000 _7_ AGT  --- 1732828138 diffusion 0 [0 0 0 0] ------- [7:254 7:255 32 0] 
r 3.310002000 _7_ AGT  --- 394266830 diffusion 0 [0 0 0 0] ------- [7:255 7:254 32 0] 
s 3.401003000 _7_ AGT  --- 1732828139 diffusion 0 [0 0 0 0] ------- [7:254 7:255 32 0] 
r 3.402036426 _9_ AGT  --- 495722045 diffusion 0 [0 0 0 0] ------- [9:255 9:254 32 0] 
r 3.402036557 _2_ AGT  --- 580900456 diffusion 0 [0 0 0 0] ------- [2:255 2:254 32 0] 
r 3.402036768 _3_ AGT  --- 1223941508 diffusion 0 [0 0 0 0] ------- [3:255 3:254 32 0] 
s 3.496037768 _3_ AGT  --- 1437693526 diffusion 0 [0 0 0 0] ------- [3:254 3:255 32 0] 
r 3.496590962 _4_ AGT  --- 611591130 diffusion 0 [0 0 0 0] ------- [4:255 4:254 32 0] 
r 3.496591110 _9_ AGT  --- 495722046 diffusion 0 [0 0 0 0] ------- [9:255 9:254 32 0] 
r 3.496591220 _2_ AGT  --- 580900457 diffusion 0 [0 0 0 0] ------- [2:255 2:254 32 0] 
r 3.496591367 _1_ AGT  --- 1225933905 diffusion 0 [0 0 0 0] ------- [1:255 1:254 32 0] 
r 3.496591536 _7_ AGT  --- 394266831 diffusion 0 [0 0 0 0] ------- [7:255 7:254 32 0] 
r 3.496591584 _6_ AGT  --- 557533828 diffusion 0 [0 0 0 0] ------- [6:255 6:254 32 0] 
s 3.502037557 _2_ AGT  --- 1566500012 diffusion 0 [0 0 0 0] ------- [2:254 2:255 32 0] 
r 3.502590885 _9_ AGT  --- 495722047 diffusion 0 [0 0 0 0] ------- [9:255 9:254 32 0] 
r 3.502591009 _3_ AGT  --- 1223941509 diffusion 0 [0 0 0 0] ------- [3:255 3:254 32 0] 
r 3.502591114 _7_ AGT  --- 394266832 diffusion 0 [0 0 0 0] ------- [7:255 7:254 32 0] 
r 3.502591147 _4_ AGT  --- 611591131 diffusion 0 [0 0 0 0] ------- [4:255 4:254 32 0] 
r 3.502591267 _1_ AGT  --- 1225933906 diffusion 0 [0 0 0 0] ------- [1:255 1:254 32 0] 
s 3.517037426 _9_ AGT  --- 1003364345 diffusion 0 [0 0 0 0] ------- [9:254 9:255 32 0] 
r 3.517670754 _2_ AGT  --- 580900458 diffusion 0 [0 0 0 0] ------- [2:255 2:254 32 0] 
r 3.517670768 _3_ AGT  --- 1223941510 diffusion 0 [0 0 0 0] ------- [3:255 3:254 32 0] 
r 3.517670852 _7_ AGT  --- 394266833 diffusion 0 [0 0 0 0] ------- [7:255 7:254 32 0] 
r 3.517670961 _4_ AGT  --- 611591132 diffusion 0 [0 0 0 0] ------- [4:255 4:254 32 0] 
s 3.575592367 _1_ AGT  --- 528599280 diffusion 0 [0 0 0 0] ------- [1:254 1:255 32 0] 
r 3.576265844 _4_ AGT  --- 611591133 diffusion 0 [0 0 0 0] ------- [4:255 4:254 32 0] 
r 3.576265966 _3_ AGT  --- 1223941511 diffusion 0 [0 0 0 0] ------- [3:255 3:254 32 0] 
r 3.576266077 _2_ AGT  --- 580900459 diffusion 0 [0 0 0 0] ------- [2:255 2:254 32 0] 
s 3.586592584 _6_ AGT  --- 1811076630 diffusion 0 [0 0 0 0] ------- [6:254 6:255 32 0] 
r 3.587185732 _8_ AGT  --- 1180591536 diffusion 0 [0 0 0 0] ------- [8:255 8:254 32 0] 
r 3.587186025 _0_ AGT  --- 2045655605 diffusion 0 [0 0 0 0] ------- [0:255 0:254 32 0] 
r 3.587186229 _5_ AGT  --- 885480292 diffusion 0 [0 0 0 0] ------- [5:255 5:254 32 0] 
r 3.587186389 _4_ AGT  --- 611591134 diffusion 0 [0 0 0 0] ------- [4:255 4:254 32 0] 
r 3.587186401 _3_ AGT  --- 1223941512 diffusion 0 [0 0 0 0] ------- [3:255 3:254 32 0] 
s 3.608591962 _4_ AGT  --- 300615856 diffusion 0 [0 0 0 0] ------- [4:254 4:255 32 0] 
r 3.609525156 _3_ AGT  --- 1223941513 diffusion 0 [0 0 0 0] ------- [3:255 3:254 32 0] 
r 3.609525439 _1_ AGT  --- 1225933907 diffusion 0 [0 0 0 0] ------- [1:255 1:254 32 0] 
r 3.609525498 _9_ AGT  --- 495722048 diffusion 0 [0 0 0 0] ------- [9:255 9:254 32 0] 
r 3.609525552 _2_ AGT  --- 580900460 diffusion 0 [0 0 0 0] ------- [2:255 2:254 32 0] 
r 3.609525766 _6_ AGT  --- 557533829 diffusion 0 [0 0 0 0] ------- [6:255 6:254 32 0] 
s 3.676187025 _0_ AGT  --- 1190071892 diffusion 0 [0 0 0 0] ------- [0:254 0:255 32 0] 
r 3.677040343 _8_ AGT  --- 1180591537 diffusion 0 [0 0 0 0] ------- [8:255 8:254 32 0] 
r 3.677040465 _6_ AGT  --- 557533830 diffusion 0 [0 0 0 0] ------- [6:255 6:254 32 0] 
s 3.678186732 _8_ AGT  --- 379185998 diffusion 0 [0 0 0 0] ------- [8:254 8:255 32 0] 
r 3.678939880 _6_ AGT  --- 557533831 diffusion 0 [0 0 0 0] ------- [6:255 6:254 32 0] 
r 3.678940050 _0_ AGT  --- 2045655606 diffusion 0 [0 0 0 0] ------- [0:255 0:254 32 0] 
r 3.678940456 _5_ AGT  --- 885480293 diffusion 0 [0 0 0 0] ------- [5:255 5:254 32 0] 
s 3.687187229 _5_ AGT  --- 905258842 diffusion 0 [0 0 0 0] ------- [5:254 5:255 32 0] 
r 3.688140874 _6_ AGT  --- 557533832 diffusion 0 [0 0 0 0] ------- [6:255 6:254 32 0] 
r 3.688140953 _8_ AGT  --- 1180591538 diffusion 0 [0 0 0 0] ------- [8:255 8:254 32 0] 
s 4.410001000 _6_ AGT  --- 1811076631 diffusion 0 [0 0 0 0] ------- [6:254 6:255 32 0] 
r 4.410002000 _6_ AGT  --- 557533833 diffusion 0 [0 0 0 0] ------- [6:255 6:254 32 0] 
s 4.488003000 _6_ AGT  --- 1811076632 diffusion 0 [0 0 0 0] ------- [6:254 6:255 32 0] 
r 4.488876148 _8_ AGT  --- 1180591539 diffusion 0 [0 0 0 0] ------- [8:255 8:254 32 0] 
r 4.488876440 _0_ AGT  --- 2045655607 diffusion 0 [0 0 0 0] ------- [0:255 0:254 32 0] 
r 4.488876645 _5_ AGT  --- 885480294 diffusion 0 [0 0 0 0] ------- [5:255 5:254 32 0] 
r 4.488876804 _4_ AGT  --- 611591135 diffusion 0 [0 0 0 0] ------- [4:255 4:254 32 0] 
r 4.488876816 _3_ AGT  --- 1223941514 diffusion 0 [0 0 0 0] ------- [3:255 3:254 32 0] 
s 4.573877816 _3_ AGT  --- 1437693527 diffusion 0 [0 0 0 0] ------- [3:254 3:255 32 0] 
r 4.574611010 _4_ AGT  --- 611591136 diffusion 0 [0 0 0 0] ------- [4:255 4:254 32 0] 
r 4.574611159 _9_ AGT  --- 495722049 diffusion 0 [0 0 0 0] ------- [9:255 9:254 32 0] 
r 4.574611269 _2_ AGT  --- 580900461 diffusion 0 [0 0 0 0] ------- [2:255 2:254 32 0] 
r 4.574611415 _1_ AGT  --- 1225933908 diffusion 0 [0 0 0 0] ------- [1:255 1:254 32 0] 
r 4.574611584 _7_ AGT  --- 394266834 diffusion 0 [0 0 0 0] ------- [7:255 7:254 32 0] 
r 4.574611633 _6_ AGT  --- 557533834 diffusion 0 [0 0 0 0] ------- [6:255 6:254 32 0] 
s 4.584877440 _0_ AGT  --- 1190071893 diffusion 0 [0 0 0 0] ------- [0:254 0:255 32 0] 
r 4.585870758 _8_ AGT  --- 1180591540 diffusion 0 [0 0 0 0] ------- [8:255 8:254 32 0] 
r 4.585870881 _6_ AGT  --- 557533835 diffusion 0 [0 0 0 0] ------- [6:255 6:254 32 0] 
s 4.602877645 _5_ AGT  --- 905258843 diffusion 0 [0 0 0 0] ------- [5:254 5:255 32 0] 
r 4.603431289 _6_ AGT  --- 557533836 diffusion 0 [0 0 0 0] ------- [6:255 6:254 32 0] 
r 4.603431369 _8_ AGT  --- 1180591541 diffusion 0 [0 0 0 0] ------- [8:255 8:254 32 0] 
s 4.606877804 _4_ AGT  --- 300615857 diffusion 0 [0 0 0 0] ------- [4:254 4:255 32 0] 
r 4.607990998 _3_ AGT  --- 1223941515 diffusion 0 [0 0 0 0] ------- [3:255 3:254 32 0] 
r 4.607991281 _1_ AGT  --- 1225933909 diffusion 0 [0 0 0 0] ------- [1:255 1:254 32 0] 
r 4.607991340 _9_ AGT  --- 495722050 diffusion 0 [0 0 0 0] ------- [9:255 9:254 32 0] 
r 4.607991394 _2_ AGT  --- 580900462 diffusion 0 [0 0 0 0] ------- [2:255 2:254 32 0] 
r 4.607991608 _6_ AGT  --- 557533837 diffusion 0 [0 0 0 0] ------- [6:255 6:254 32 0] 
s 4.612877148 _8_ AGT  --- 379185999 diffusion 0 [0 0 0 0] ------- [8:254 8:255 32 0] 
r 4.613650296 _6_ AGT  --- 557533838 diffusion 0 [0 0 0 0] ------- [6:255 6:254 32 0] 
r 4.613650466 _0_ AGT  --- 2045655608 diffusion 0 [0 0 0 0] ------- [0:255 0:254 32 0] 
r 4.613650872 _5_ AGT  --- 885480295 diffusion 0 [0 0 0 0] ------- [5:255 5:254 32 0] 
s 4.670612159 _9_ AGT  --- 1003364346 diffusion 0 [0 0 0 0] ------- [9:254 9:255 32 0] 
r 4.671365487 _2_ AGT  --- 580900463 diffusion 0 [0 0 0 0] ------- [2:255 2:254 32 0] 
r 4.671365501 _3_ AGT  --- 1223941516 diffusion 0 [0 0 0 0] ------- [3:255 3:254 32 0] 
r 4.671365584 _7_ AGT  --- 394266835 diffusion 0 [0 0 0 0] ------- [7:255 7:254 32 0] 
r 4.671365694 _4_ AGT  --- 611591137 diffusion 0 [0 0 0 0] ------- [4:255 4:254 32 0] 
s 4.672612584 _7_ AGT  --- 1732828140 diffusion 0 [0 0 0 0] ------- [7:254 7:255 32 0] 
r 4.673186010 _9_ AGT  --- 495722051 diffusion 0 [0 0 0 0] ------- [9:255 9:254 32 0] 
r 4.673186142 _2_ AGT  --- 580900464 diffusion 0 [0 0 0 0] ------- [2:255 2:254 32 0] 
r 4.673186352 _3_ AGT  --- 1223941517 diffusion 0 [0 0 0 0] ------- [3:255 3:254 32 0] 
s 4.673612415 _1_ AGT  --- 528599281 diffusion 0 [0 0 0 0] ------- [1:254 1:255 32 0] 
r 4.674485892 _4_ AGT  --- 611591138 diffusion 0 [0 0 0 0] ------- [4:255 4:254 32 0] 
r 4.674486014 _3_ AGT  --- 1223941518 diffusion 0 [0 0 0 0] ------- [3:255 3:254 32 0] 
r 4.674486125 _2_ AGT  --- 580900465 diffusion 0 [0 0 0 0] ------- [2:255 2:254 32 0] 
s 4.686612269 _2_ AGT  --- 1566500013 diffusion 0 [0 0 0 0] ------- [2:254 2:255 32 0] 
r 4.687145597 _9_ AGT  --- 495722052 diffusion 0 [0 0 0 0] ------- [9:255 9:254 32 0] 
r 4.687145721 _3_ AGT  --- 1223941519 diffusion 0 [0 0 0 0] ------- [3:255 3:254 32 0] 
r 4.687145826 _7_ AGT  --- 394266836 diffusion 0 [0 0 0 0] ------- [7:255 7:254 32 0] 
r 4.687145859 _4_ AGT  --- 611591139 diffusion 0 [0 0 0 0] ------- [4:255 4:254 32 0] 
r 4.687145978 _1_ AGT  --- 1225933910 diffusion 0 [0 0 0 0] ------- [1:255 1:254 32 0] 
s 5.123001000 _2_ AGT  --- 1566500014 diffusion 0 [0 0 0 0] ------- [2:254 2:255 32 0] 
r 5.123002000 _2_ AGT  --- 580900466 diffusion 0 [0 0 0 0] ------- [2:255 2:254 32 0] 
s 5.123003000 _2_ AGT  --- 1566500015 diffusion 0 [0 0 0 0] ------- [2:254 2:255 32 0] 
s 5.123003000 _2_ AGT  --- 1566500016 diffusion 0 [0 0 0 0] ------- [2:254 2:255 32 0] 
s 5.123003000 _2_ AGT  --- 1566500017 diffusion 0 [0 0 0 0] ------- [2:254 2:255 32 0] 
s 5.123003000 _2_ AGT  --- 1566500018 diffusion 0 [0 0 0 0] ------- [2:254 2:255 32 0] 
s 5.123003000 _2_ AGT  --- 1566500019 diffusion 0 [0 0 0 0] ------- [2:254 2:255 32 0] 
r 5.137288694 _9_ AGT  --- 495722053 diffusion 0 [0 0 0 0] ------- [9:255 9:254 32 0] 
s 5.137289694 _9_ AGT  --- 1003364347 diffusion 0 [0 0 0 0] ------- [9:254 9:255 32 0] 
s 5.137289694 _9_ AGT  --- 1003364348 diffusion 0 [0 0 0 0] ------- [9:254 9:255 32 0] 
s 5.137289694 _9_ AGT  --- 1003364349 diffusion 0 [0 0 0 0] ------- [9:254 9:255 32 0] 
s 5.137289694 _9_ AGT  --- 1003364350 diffusion 0 [0 0 0 0] ------- [9:254 9:255 32 0] 
s 5.137289694 _9_ AGT  --- 1003364351 diffusion 0 [0 0 0 0] ------- [9:254 9:255 32 0] 
r 5.137290694 _9_ AGT  --- 1566500014 diffusion 0 [0 0 0 0] ------- [9:255 9:254 32 0] 
r 5.139616792 _4_ AGT  --- 611591140 diffusion 0 [0 0 0 0] ------- [4:255 4:254 32 0] 
s 5.139617792 _4_ AGT  --- 300615858 diffusion 0 [0 0 0 0] ------- [4:254 4:255 32 0] 
s 5.139617792 _4_ AGT  --- 300615859 diffusion 0 [0 0 0 0] ------- [4:254 4:255 32 0] 
s 5.139617792 _4_ AGT  --- 300615860 diffusion 0 [0 0 0 0] ------- [4:254 4:255 32 0] 
s 5.139617792 _4_ AGT  --- 300615861 diffusion 0 [0 0 0 0] ------- [4:254 4:255 32 0] 
s 5.139617792 _4_ AGT  --- 300615862 diffusion 0 [0 0 0 0] ------- [4:254 4:255 32 0] 
r 5.152095451 _2_ AGT  --- 580900467 diffusion 0 [0 0 0 0] ------- [2:255 2:254 32 0] 
r 5.154504183 _4_ AGT  --- 611591141 diffusion 0 [0 0 0 0] ------- [4:255 4:254 32 0] 
r 5.159968384 _9_ AGT  --- 495722054 diffusion 0 [0 0 0 0] ------- [9:255 9:254 32 0] 
r 5.161630069 _3_ AGT  --- 1223941520 diffusion 0 [0 0 0 0] ------- [3:255 3:254 32 0] 
s 5.161631069 _3_ AGT  --- 1437693528 diffusion 0 [0 0 0 0] ------- [3:254 3:255 32 0] 
s 5.161631069 _3_ AGT  --- 1437693529 diffusion 0 [0 0 0 0] ------- [3:254 3:255 32 0] 
s 5.161631069 _3_ AGT  --- 1437693530 diffusion 0 [0 0 0 0] ------- [3:254 3:255 32 0] 
s 5.161631069 _3_ AGT  --- 1437693531 diffusion 0 [0 0 0 0] ------- [3:254 3:255 32 0] 
s 5.161631069 _3_ AGT  --- 1437693532 diffusion 0 [0 0 0 0] ------- [3:254 3:255 32 0] 
s 5.161631069 _3_ AGT  --- 1437693533 diffusion 0 [0 0 0 0] ------- [3:254 3:255 32 0] 
r 5.163171438 _3_ AGT  --- 1223941521 diffusion 0 [0 0 0 0] ------- [3:255 3:254 32 0] 
r 5.165479402 _2_ AGT  --- 580900468 diffusion 0 [0 0 0 0] ------- [2:255 2:254 32 0] 
r 5.167020575 _3_ AGT  --- 1223941522 diffusion 0 [0 0 0 0] ------- [3:255 3:254 32 0] 
r 5.169348699 _7_ AGT  --- 394266837 diffusion 0 [0 0 0 0] ------- [7:255 7:254 32 0] 
s 5.169349699 _7_ AGT  --- 1732828141 diffusion 0 [0 0 0 0] ------- [7:254 7:255 32 0] 
s 5.169349699 _7_ AGT  --- 1732828142 diffusion 0 [0 0 0 0] ------- [7:254 7:255 32 0] 
s 5.169349699 _7_ AGT  --- 1732828143 diffusion 0 [0 0 0 0] ------- [7:254 7:255 32 0] 
s 5.169349699 _7_ AGT  --- 1732828144 diffusion 0 [0 0 0 0] ------- [7:254 7:255 32 0] 
r 5.169350699 _7_ AGT  --- 1566500014 diffusion 0 [0 0 0 0] ------- [7:255 7:254 32 0] 
r 5.175539749 _7_ AGT  --- 394266838 diffusion 0 [0 0 0 0] ------- [7:255 7:254 32 0] 
r 5.177141544 _9_ AGT  --- 495722055 diffusion 0 [0 0 0 0] ------- [9:255 9:254 32 0] 
r 5.178744492 _6_ AGT  --- 557533839 diffusion 0 [0 0 0 0] ------- [6:255 6:254 32 0] 
s 5.178745492 _6_ AGT  --- 1811076633 diffusion 0 [0 0 0 0] ------- [6:254 6:255 32 0] 
s 5.178745492 _6_ AGT  --- 1811076634 diffusion 0 [0 0 0 0] ------- [6:254 6:255 32 0] 
s 5.178745492 _6_ AGT  --- 1811076635 diffusion 0 [0 0 0 0] ------- [6:254 6:255 32 0] 
s 5.178745492 _6_ AGT  --- 1811076636 diffusion 0 [0 0 0 0] ------- [6:254 6:255 32 0] 
s 5.178745492 _6_ AGT  --- 1811076637 diffusion 0 [0 0 0 0] ------- [6:254 6:255 32 0] 
s 5.178745492 _6_ AGT  --- 1811076638 diffusion 0 [0 0 0 0] ------- [6:254 6:255 32 0] 
r 5.178746492 _6_ AGT  --- 1566500014 diffusion 0 [0 0 0 0] ------- [6:255 6:254 32 0] 
r 5.180305891 _4_ AGT  --- 611591142 diffusion 0 [0 0 0 0] ------- [4:255 4:254 32 0] 
r 5.181848610 _1_ AGT  --- 1225933911 diffusion 0 [0 0 0 0] ------- [1:255 1:254 32 0] 
s 5.181849610 _1_ AGT  --- 528599282 diffusion 0 [0 0 0 0] ------- [1:254 1:255 32 0] 
s 5.181849610 _1_ AGT  --- 528599283 diffusion 0 [0 0 0 0] ------- [1:254 1:255 32 0] 
s 5.181849610 _1_ AGT  --- 528599284 diffusion 0 [0 0 0 0] ------- [1:254 1:255 32 0] 
r 5.183630566 _2_ AGT  --- 580900469 diffusion 0 [0 0 0 0] ------- [2:255 2:254 32 0] 
r 5.185392587 _1_ AGT  --- 1225933912 diffusion 0 [0 0 0 0] ------- [1:255 1:254 32 0] 
r 5.186955635 _6_ AGT  --- 557533840 diffusion 0 [0 0 0 0] ------- [6:255 6:254 32 0] 
r 5.193207626 _4_ AGT  --- 611591143 diffusion 0 [0 0 0 0] ------- [4:255 4:254 32 0] 
r 5.195010879 _3_ AGT  --- 1223941523 diffusion 0 [0 0 0 0] ------- [3:255 3:254 32 0] 
r 5.200496496 _5_ AGT  --- 885480296 diffusion 0 [0 0 0 0] ------- [5:255 5:254 32 0] 
s 5.200497496 _5_ AGT  --- 905258844 diffusion 0 [0 0 0 0] ------- [5:254 5:255 32 0] 
s 5.200497496 _5_ AGT  --- 905258845 diffusion 0 [0 0 0 0] ------- [5:254 5:255 32 0] 
r 5.203465102 _9_ AGT  --- 495722056 diffusion 0 [0 0 0 0] ------- [9:255 9:254 32 0] 
r 5.205388253 _6_ AGT  --- 557533841 diffusion 0 [0 0 0 0] ------- [6:255 6:254 32 0] 
r 5.207061148 _7_ AGT  --- 394266839 diffusion 0 [0 0 0 0] ------- [7:255 7:254 32 0] 
r 5.208603453 _3_ AGT  --- 1223941524 diffusion 0 [0 0 0 0] ------- [3:255 3:254 32 0] 
r 5.210125892 _2_ AGT  --- 580900470 diffusion 0 [0 0 0 0] ------- [2:255 2:254 32 0] 
r 5.211688142 _1_ AGT  --- 1225933913 diffusion 0 [0 0 0 0] ------- [1:255 1:254 32 0] 
r 5.213249572 _4_ AGT  --- 611591144 diffusion 0 [0 0 0 0] ------- [4:255 4:254 32 0] 
r 5.214791846 _3_ AGT  --- 1223941525 diffusion 0 [0 0 0 0] ------- [3:255 3:254 32 0] 
r 5.216594574 _2_ AGT  --- 580900471 diffusion 0 [0 0 0 0] ------- [2:255 2:254 32 0] 
r 5.222548859 _8_ AGT  --- 1180591542 diffusion 0 [0 0 0 0] ------- [8:255 8:254 32 0] 
s 5.222549859 _8_ AGT  --- 379186000 diffusion 0 [0 0 0 0] ------- [8:254 8:255 32 0] 
s 5.222549859 _8_ AGT  --- 379186001 diffusion 0 [0 0 0 0] ------- [8:254 8:255 32 0] 
s 5.222549859 _8_ AGT  --- 379186002 diffusion 0 [0 0 0 0] ------- [8:254 8:255 32 0] 
s 5.222549859 _8_ AGT  --- 379186003 diffusion 0 [0 0 0 0] ------- [8:254 8:255 32 0] 
r 5.222550859 _8_ AGT  --- 1566500014 diffusion 0 [0 0 0 0] ------- [8:255 8:254 32 0] 
r 5.224875302 _6_ AGT  --- 557533842 diffusion 0 [0 0 0 0] ------- [6:255 6:254 32 0] 
r 5.226497622 _5_ AGT  --- 885480297 diffusion 0 [0 0 0 0] ------- [5:255 5:254 32 0] 
r 5.228498710 _8_ AGT  --- 1180591543 diffusion 0 [0 0 0 0] ------- [8:255 8:254 32 0] 
r 5.233950697 _0_ AGT  --- 2045655609 diffusion 0 [0 0 0 0] ------- [0:255 0:254 32 0] 
s 5.233951697 _0_ AGT  --- 1190071894 diffusion 0 [0 0 0 0] ------- [0:254 0:255 32 0] 
s 5.233951697 _0_ AGT  --- 1190071895 diffusion 0 [0 0 0 0] ------- [0:254 0:255 32 0] 
r 5.235492459 _0_ AGT  --- 2045655610 diffusion 0 [0 0 0 0] ------- [0:255 0:254 32 0] 
r 5.237513780 _6_ AGT  --- 557533843 diffusion 0 [0 0 0 0] ------- [6:255 6:254 32 0] 
r 5.239575174 _8_ AGT  --- 1180591544 diffusion 0 [0 0 0 0] ------- [8:255 8:254 32 0] 
s 5.723001000 _7_ AGT  --- 1732828145 diffusion 0 [0 0 0 0] ------- [7:254 7:255 32 0] 
r 5.723002000 _7_ AGT  --- 394266840 diffusion 0 [0 0 0 0] ------- [7:255 7:254 32 0] 
s 5.775549859 _8_ AGT  --- 379186004 diffusion 0 [0 0 0 0] ------- [8:254 8:255 32 0] 
r 5.776953030 _5_ AGT  --- 885480298 diffusion 0 [0 0 0 0] ------- [5:255 5:254 32 0] 
s 5.776954030 _5_ AGT  --- 905258846 diffusion 0 [0 0 0 0] ------- [5:254 5:255 32 0] 
r 5.778834965 _6_ AGT  --- 557533844 diffusion 0 [0 0 0 0] ------- [6:255 6:254 32 0] 
s 5.778835965 _6_ AGT  --- 1811076639 diffusion 0 [0 0 0 0] ------- [6:254 6:255 32 0] 
r 5.780437377 _4_ AGT  --- 611591145 diffusion 0 [0 0 0 0] ------- [4:255 4:254 32 0] 
s 5.780438377 _4_ AGT  --- 300615863 diffusion 0 [0 0 0 0] ------- [4:254 4:255 32 0] 
r 5.782399147 _2_ AGT  --- 580900472 diffusion 0 [0 0 0 0] ------- [2:255 2:254 32 0] 
s 5.786745492 _6_ AGT  --- 1811076640 diffusion 0 [0 0 0 0] ------- [6:254 6:255 32 0] 
r 5.788528904 _4_ AGT  --- 611591146 diffusion 0 [0 0 0 0] ------- [4:255 4:254 32 0] 
s 5.788529904 _4_ AGT  --- 300615864 diffusion 0 [0 0 0 0] ------- [4:254 4:255 32 0] 
r 5.790290675 _2_ AGT  --- 580900473 diffusion 0 [0 0 0 0] ------- [2:255 2:254 32 0] 
s 5.808003000 _7_ AGT  --- 1732828146 diffusion 0 [0 0 0 0] ------- [7:254 7:255 32 0] 
r 5.808696426 _9_ AGT  --- 495722057 diffusion 0 [0 0 0 0] ------- [9:255 9:254 32 0] 
r 5.808696557 _2_ AGT  --- 580900474 diffusion 0 [0 0 0 0] ------- [2:255 2:254 32 0] 
r 5.808696768 _3_ AGT  --- 1223941526 diffusion 0 [0 0 0 0] ------- [3:255 3:254 32 0] 
s 5.815289694 _9_ AGT  --- 1003364352 diffusion 0 [0 0 0 0] ------- [9:254 9:255 32 0] 
r 5.816851678 _2_ AGT  --- 580900475 diffusion 0 [0 0 0 0] ------- [2:255 2:254 32 0] 
s 5.824349699 _7_ AGT  --- 1732828147 diffusion 0 [0 0 0 0] ------- [7:254 7:255 32 0] 
r 5.826132370 _2_ AGT  --- 580900476 diffusion 0 [0 0 0 0] ------- [2:255 2:254 32 0] 
s 5.884697557 _2_ AGT  --- 1566500020 diffusion 0 [0 0 0 0] ------- [2:254 2:255 32 0] 
r 5.885410885 _9_ AGT  --- 495722058 diffusion 0 [0 0 0 0] ------- [9:255 9:254 32 0] 
r 5.885411009 _3_ AGT  --- 1223941527 diffusion 0 [0 0 0 0] ------- [3:255 3:254 32 0] 
r 5.885411114 _7_ AGT  --- 394266841 diffusion 0 [0 0 0 0] ------- [7:255 7:254 32 0] 
r 5.885411147 _4_ AGT  --- 611591147 diffusion 0 [0 0 0 0] ------- [4:255 4:254 32 0] 
r 5.885411267 _1_ AGT  --- 1225933914 diffusion 0 [0 0 0 0] ------- [1:255 1:254 32 0] 
s 5.900697768 _3_ AGT  --- 1437693534 diffusion 0 [0 0 0 0] ------- [3:254 3:255 32 0] 
r 5.901550962 _4_ AGT  --- 611591148 diffusion 0 [0 0 0 0] ------- [4:255 4:254 32 0] 
r 5.901551110 _9_ AGT  --- 495722059 diffusion 0 [0 0 0 0] ------- [9:255 9:254 32 0] 
r 5.901551220 _2_ AGT  --- 580900477 diffusion 0 [0 0 0 0] ------- [2:255 2:254 32 0] 
r 5.901551367 _1_ AGT  --- 1225933915 diffusion 0 [0 0 0 0] ------- [1:255 1:254 32 0] 
r 5.901551536 _7_ AGT  --- 394266842 diffusion 0 [0 0 0 0] ------- [7:255 7:254 32 0] 
r 5.901551584 _6_ AGT  --- 557533845 diffusion 0 [0 0 0 0] ------- [6:255 6:254 32 0] 
s 5.926697426 _9_ AGT  --- 1003364353 diffusion 0 [0 0 0 0] ------- [9:254 9:255 32 0] 
r 5.927490754 _2_ AGT  --- 580900478 diffusion 0 [0 0 0 0] ------- [2:255 2:254 32 0] 
r 5.927490768 _3_ AGT  --- 1223941528 diffusion 0 [0 0 0 0] ------- [3:255 3:254 32 0] 
r 5.927490852 _7_ AGT  --- 394266843 diffusion 0 [0 0 0 0] ------- [7:255 7:254 32 0] 
r 5.927490961 _4_ AGT  --- 611591149 diffusion 0 [0 0 0 0] ------- [4:255 4:254 32 0] 
s 5.987412147 _4_ AGT  --- 300615865 diffusion 0 [0 0 0 0] ------- [4:254 4:255 32 0] 
r 5.988465341 _3_ AGT  --- 1223941529 diffusion 0 [0 0 0 0] ------- [3:255 3:254 32 0] 
r 5.988465624 _1_ AGT  --- 1225933916 diffusion 0 [0 0 0 0] ------- [1:255 1:254 32 0] 