s 0.000001000 _0_ AGT  --- 1190071889 diffusion 0 [0 0 0 0] ------- [0:254 0:255 32 0] 
s 0.000001000 _1_ AGT  --- 528599277 diffusion 0 [0 0 0 0] ------- [1:254 1:255 32 0] 
s 0.000001000 _2_ AGT  --- 1566500007 diffusion 0 [0 0 0 0] ------- [2:254 2:255 32 0] 
s 0.000001000 _3_ AGT  --- 1437693523 diffusion 0 [0 0 0 0] ------- [3:254 3:255 32 0] 
s 0.000001000 _4_ AGT  --- 300615853 diffusion 0 [0 0 0 0] ------- [4:254 4:255 32 0] 
s 0.000001000 _5_ AGT  --- 905258839 diffusion 0 [0 0 0 0] ------- [5:254 5:255 32 0] 
s 0.000001000 _6_ AGT  --- 1811076627 diffusion 0 [0 0 0 0] ------- [6:254 6:255 32 0] 
s 0.000001000 _7_ AGT  --- 1732828135 diffusion 0 [0 0 0 0] ------- [7:254 7:255 32 0] 
s 0.000001000 _8_ AGT  --- 379185994 diffusion 0 [0 0 0 0] ------- [8:254 8:255 32 0] 
s 0.000001000 _9_ AGT  --- 1003364341 diffusion 0 [0 0 0 0] ------- [9:254 9:255 32 0] 
s 0.010001000 _2_ AGT  --- 1566500008 diffusion 0 [0 0 0 0] ------- [2:254 2:255 32 0] 
r 0.010002000 _2_ AGT  --- 580900445 diffusion 0 [0 0 0 0] ------- [2:255 2:254 32 0] 
s 0.133001000 _3_ AGT  --- 1437693524 diffusion 0 [0 0 0 0] ------- [3:254 3:255 32 0] 
r 0.133002000 _3_ AGT  --- 1223941496 diffusion 0 [0 0 0 0] ------- [3:255 3:254 32 0] 
s 0.256001000 _4_ AGT  --- 300615854 diffusion 0 [0 0 0 0] ------- [4:254 4:255 32 0] 
r 0.256002000 _4_ AGT  --- 611591120 diffusion 0 [0 0 0 0] ------- [4:255 4:254 32 0] 
s 0.379001000 _5_ AGT  --- 905258840 diffusion 0 [0 0 0 0] ------- [5:254 5:255 32 0] 
r 0.379002000 _5_ AGT  --- 885480288 diffusion 0 [0 0 0 0] ------- [5:255 5:254 32 0] 
s 1.466001000 _9_ AGT  --- 1003364342 diffusion 0 [0 0 0 0] ------- [9:254 9:255 32 0] 
r 1.466002000 _9_ AGT  --- 495722036 diffusion 0 [0 0 0 0] ------- [9:255 9:254 32 0] 
s 1.555003000 _9_ AGT  --- 1003364343 diffusion 0 [0 0 0 0] ------- [9:254 9:255 32 0] 
r 1.555856328 _2_ AGT  --- 580900446 diffusion 0 [0 0 0 0] ------- [2:255 2:254 32 0] 
r 1.555856342 _3_ AGT  --- 1223941497 diffusion 0 [0 0 0 0] ------- [3:255 3:254 32 0] 
r 1.555856426 _7_ AGT  --- 394266824 diffusion 0 [0 0 0 0] ------- [7:255 7:254 32 0] 
r 1.555856536 _4_ AGT  --- 611591121 diffusion 0 [0 0 0 0] ------- [4:255 4:254 32 0] 
s 1.555857328 _2_ AGT  --- 1566500009 diffusion 0 [0 0 0 0] ------- [2:254 2:255 32 0] 
s 1.555857342 _3_ AGT  --- 1437693525 diffusion 0 [0 0 0 0] ------- [3:254 3:255 32 0] 
s 1.555857536 _4_ AGT  --- 300615855 diffusion 0 [0 0 0 0] ------- [4:254 4:255 32 0] 
r 1.555858328 _2_ AGT  --- 0 diffusion 0 [0 0 0 0] ------- [2:255 2:254 32 0] 
r 1.555858342 _3_ AGT  --- 0 diffusion 0 [0 0 0 0] ------- [3:255 3:254 32 0] 
r 1.555858536 _4_ AGT  --- 0 diffusion 0 [0 0 0 0] ------- [4:255 4:254 32 0] 
s 1.634857536 _4_ AGT  --- 300615856 diffusion 0 [0 0 0 0] ------- [4:254 4:255 32 0] 
r 1.635950730 _3_ AGT  --- 1223941498 diffusion 0 [0 0 0 0] ------- [3:255 3:254 32 0] 
r 1.635951012 _1_ AGT  --- 1225933899 diffusion 0 [0 0 0 0] ------- [1:255 1:254 32 0] 
r 1.635951071 _9_ AGT  --- 495722037 diffusion 0 [0 0 0 0] ------- [9:255 9:254 32 0] 
r 1.635951126 _2_ AGT  --- 580900447 diffusion 0 [0 0 0 0] ------- [2:255 2:254 32 0] 
r 1.635951340 _6_ AGT  --- 557533818 diffusion 0 [0 0 0 0] ------- [6:255 6:254 32 0] 
s 1.651857342 _3_ AGT  --- 1437693526 diffusion 0 [0 0 0 0] ------- [3:254 3:255 32 0] 
r 1.652390536 _4_ AGT  --- 611591122 diffusion 0 [0 0 0 0] ------- [4:255 4:254 32 0] 
r 1.652390685 _9_ AGT  --- 495722038 diffusion 0 [0 0 0 0] ------- [9:255 9:254 32 0] 
r 1.652390795 _2_ AGT  --- 580900448 diffusion 0 [0 0 0 0] ------- [2:255 2:254 32 0] 
r 1.652390941 _1_ AGT  --- 1225933900 diffusion 0 [0 0 0 0] ------- [1:255 1:254 32 0] 
r 1.652391110 _7_ AGT  --- 394266825 diffusion 0 [0 0 0 0] ------- [7:255 7:254 32 0] 
r 1.652391159 _6_ AGT  --- 557533819 diffusion 0 [0 0 0 0] ------- [6:255 6:254 32 0] 
s 1.657857426 _7_ AGT  --- 1732828136 diffusion 0 [0 0 0 0] ------- [7:254 7:255 32 0] 
r 1.658390852 _9_ AGT  --- 495722039 diffusion 0 [0 0 0 0] ------- [9:255 9:254 32 0] 
r 1.658390983 _2_ AGT  --- 580900449 diffusion 0 [0 0 0 0] ------- [2:255 2:254 32 0] 
r 1.658391194 _3_ AGT  --- 1223941499 diffusion 0 [0 0 0 0] ------- [3:255 3:254 32 0] 
s 1.667857328 _2_ AGT  --- 1566500010 diffusion 0 [0 0 0 0] ------- [2:254 2:255 32 0] 
r 1.668850656 _9_ AGT  --- 495722040 diffusion 0 [0 0 0 0] ------- [9:255 9:254 32 0] 
r 1.668850780 _3_ AGT  --- 1223941500 diffusion 0 [0 0 0 0] ------- [3:255 3:254 32 0] 
r 1.668850885 _7_ AGT  --- 394266826 diffusion 0 [0 0 0 0] ------- [7:255 7:254 32 0] 
r 1.668850918 _4_ AGT  --- 611591123 diffusion 0 [0 0 0 0] ------- [4:255 4:254 32 0] 
r 1.668851038 _1_ AGT  --- 1225933901 diffusion 0 [0 0 0 0] ------- [1:255 1:254 32 0] 
s 1.724952012 _1_ AGT  --- 528599278 diffusion 0 [0 0 0 0] ------- [1:254 1:255 32 0] 
r 1.725585489 _4_ AGT  --- 611591124 diffusion 0 [0 0 0 0] ------- [4:255 4:254 32 0] 
r 1.725585611 _3_ AGT  --- 1223941501 diffusion 0 [0 0 0 0] ------- [3:255 3:254 32 0] 
r 1.725585722 _2_ AGT  --- 580900450 diffusion 0 [0 0 0 0] ------- [2:255 2:254 32 0] 
s 1.755952340 _6_ AGT  --- 1811076628 diffusion 0 [0 0 0 0] ------- [6:254 6:255 32 0] 
r 1.756905488 _8_ AGT  --- 1180591529 diffusion 0 [0 0 0 0] ------- [8:255 8:254 32 0] 
r 1.756905780 _0_ AGT  --- 2045655601 diffusion 0 [0 0 0 0] ------- [0:255 0:254 32 0] 
r 1.756905985 _5_ AGT  --- 885480289 diffusion 0 [0 0 0 0] ------- [5:255 5:254 32 0] 
r 1.756906144 _4_ AGT  --- 611591125 diffusion 0 [0 0 0 0] ------- [4:255 4:254 32 0] 
r 1.756906156 _3_ AGT  --- 1223941502 diffusion 0 [0 0 0 0] ------- [3:255 3:254 32 0] 
s 1.756906985 _5_ AGT  --- 905258841 diffusion 0 [0 0 0 0] ------- [5:254 5:255 32 0] 
r 1.756907985 _5_ AGT  --- 0 diffusion 0 [0 0 0 0] ------- [5:255 5:254 32 0] 
s 1.863906985 _5_ AGT  --- 905258842 diffusion 0 [0 0 0 0] ------- [5:254 5:255 32 0] 
r 1.864640629 _6_ AGT  --- 557533820 diffusion 0 [0 0 0 0] ------- [6:255 6:254 32 0] 
r 1.864640708 _8_ AGT  --- 1180591530 diffusion 0 [0 0 0 0] ------- [8:255 8:254 32 0] 
s 1.868906780 _0_ AGT  --- 1190071890 diffusion 0 [0 0 0 0] ------- [0:254 0:255 32 0] 
r 1.869860098 _8_ AGT  --- 1180591531 diffusion 0 [0 0 0 0] ------- [8:255 8:254 32 0] 
r 1.869860221 _6_ AGT  --- 557533821 diffusion 0 [0 0 0 0] ------- [6:255 6:254 32 0] 
s 1.869906488 _8_ AGT  --- 379185995 diffusion 0 [0 0 0 0] ------- [8:254 8:255 32 0] 
r 1.870959636 _6_ AGT  --- 557533822 diffusion 0 [0 0 0 0] ------- [6:255 6:254 32 0] 
r 1.870959806 _0_ AGT  --- 2045655602 diffusion 0 [0 0 0 0] ------- [0:255 0:254 32 0] 
r 1.870960212 _5_ AGT  --- 885480290 diffusion 0 [0 0 0 0] ------- [5:255 5:254 32 0] 
s 5.000001000 _2_ AGT  --- 1566500011 diffusion 0 [0 0 0 0] ------- [2:254 2:255 32 0] 
r 5.000002000 _2_ AGT  --- 580900451 diffusion 0 [0 0 0 0] ------- [2:255 2:254 32 0] 
s 5.000003000 _2_ AGT  --- 1566500012 diffusion 0 [0 0 0 0] ------- [2:254 2:255 32 0] 
s 5.000003000 _2_ AGT  --- 1566500013 diffusion 0 [0 0 0 0] ------- [2:254 2:255 32 0] 
s 5.000003000 _2_ AGT  --- 1566500014 diffusion 0 [0 0 0 0] ------- [2:254 2:255 32 0] 
s 5.000003000 _2_ AGT  --- 1566500015 diffusion 0 [0 0 0 0] ------- [2:254 2:255 32 0] 
s 5.000003000 _2_ AGT  --- 1566500016 diffusion 0 [0 0 0 0] ------- [2:254 2:255 32 0] 
r 5.009371478 _3_ AGT  --- 1223941503 diffusion 0 [0 0 0 0] ------- [3:255 3:254 32 0] 
s 5.009372478 _3_ AGT  --- 1437693527 diffusion 0 [0 0 0 0] ------- [3:254 3:255 32 0] 
s 5.009372478 _3_ AGT  --- 1437693528 diffusion 0 [0 0 0 0] ------- [3:254 3:255 32 0] 
s 5.009372478 _3_ AGT  --- 1437693529 diffusion 0 [0 0 0 0] ------- [3:254 3:255 32 0] 
s 5.009372478 _3_ AGT  --- 1437693530 diffusion 0 [0 0 0 0] ------- [3:254 3:255 32 0] 
s 5.009372478 _3_ AGT  --- 1437693531 diffusion 0 [0 0 0 0] ------- [3:254 3:255 32 0] 
s 5.009372478 _3_ AGT  --- 1437693532 diffusion 0 [0 0 0 0] ------- [3:254 3:255 32 0] 
r 5.013019191 _9_ AGT  --- 495722041 diffusion 0 [0 0 0 0] ------- [9:255 9:254 32 0] 
s 5.013020191 _9_ AGT  --- 1003364344 diffusion 0 [0 0 0 0] ------- [9:254 9:255 32 0] 
s 5.013020191 _9_ AGT  --- 1003364345 diffusion 0 [0 0 0 0] ------- [9:254 9:255 32 0] 
s 5.013020191 _9_ AGT  --- 1003364346 diffusion 0 [0 0 0 0] ------- [9:254 9:255 32 0] 
s 5.013020191 _9_ AGT  --- 1003364347 diffusion 0 [0 0 0 0] ------- [9:254 9:255 32 0] 
s 5.013020191 _9_ AGT  --- 1003364348 diffusion 0 [0 0 0 0] ------- [9:254 9:255 32 0] 
r 5.013021191 _9_ AGT  --- 1566500011 diffusion 0 [0 0 0 0] ------- [9:255 9:254 32 0] 
r 5.021279357 _1_ AGT  --- 1225933902 diffusion 0 [0 0 0 0] ------- [1:255 1:254 32 0] 
s 5.021280357 _1_ AGT  --- 528599279 diffusion 0 [0 0 0 0] ------- [1:254 1:255 32 0] 
s 5.021280357 _1_ AGT  --- 528599280 diffusion 0 [0 0 0 0] ------- [1:254 1:255 32 0] 
s 5.021280357 _1_ AGT  --- 528599281 diffusion 0 [0 0 0 0] ------- [1:254 1:255 32 0] 
r 5.022901837 _4_ AGT  --- 611591126 diffusion 0 [0 0 0 0] ------- [4:255 4:254 32 0] 
s 5.022902837 _4_ AGT  --- 300615857 diffusion 0 [0 0 0 0] ------- [4:254 4:255 32 0] 
s 5.022902837 _4_ AGT  --- 300615858 diffusion 0 [0 0 0 0] ------- [4:254 4:255 32 0] 
s 5.022902837 _4_ AGT  --- 300615859 diffusion 0 [0 0 0 0] ------- [4:254 4:255 32 0] 
s 5.022902837 _4_ AGT  --- 300615860 diffusion 0 [0 0 0 0] ------- [4:254 4:255 32 0] 
s 5.022902837 _4_ AGT  --- 300615861 diffusion 0 [0 0 0 0] ------- [4:254 4:255 32 0] 
r 5.025209357 _2_ AGT  --- 580900452 diffusion 0 [0 0 0 0] ------- [2:255 2:254 32 0] 
r 5.026750712 _3_ AGT  --- 1223941504 diffusion 0 [0 0 0 0] ------- [3:255 3:254 32 0] 
r 5.035291456 _4_ AGT  --- 611591127 diffusion 0 [0 0 0 0] ------- [4:255 4:254 32 0] 
r 5.039311007 _2_ AGT  --- 580900453 diffusion 0 [0 0 0 0] ------- [2:255 2:254 32 0] 
r 5.040853204 _9_ AGT  --- 495722042 diffusion 0 [0 0 0 0] ------- [9:255 9:254 32 0] 
r 5.044510276 _9_ AGT  --- 495722043 diffusion 0 [0 0 0 0] ------- [9:255 9:254 32 0] 
r 5.048056763 _3_ AGT  --- 1223941505 diffusion 0 [0 0 0 0] ------- [3:255 3:254 32 0] 
r 5.049618887 _7_ AGT  --- 394266827 diffusion 0 [0 0 0 0] ------- [7:255 7:254 32 0] 
s 5.049619887 _7_ AGT  --- 1732828137 diffusion 0 [0 0 0 0] ------- [7:254 7:255 32 0] 
s 5.049619887 _7_ AGT  --- 1732828138 diffusion 0 [0 0 0 0] ------- [7:254 7:255 32 0] 
s 5.049619887 _7_ AGT  --- 1732828139 diffusion 0 [0 0 0 0] ------- [7:254 7:255 32 0] 
r 5.051160165 _9_ AGT  --- 495722044 diffusion 0 [0 0 0 0] ------- [9:255 9:254 32 0] 
r 5.052741442 _7_ AGT  --- 394266828 diffusion 0 [0 0 0 0] ------- [7:255 7:254 32 0] 
r 5.054502793 _4_ AGT  --- 611591128 diffusion 0 [0 0 0 0] ------- [4:255 4:254 32 0] 
r 5.056871517 _2_ AGT  --- 580900454 diffusion 0 [0 0 0 0] ------- [2:255 2:254 32 0] 
r 5.058493537 _1_ AGT  --- 1225933903 diffusion 0 [0 0 0 0] ------- [1:255 1:254 32 0] 
r 5.060355933 _1_ AGT  --- 1225933904 diffusion 0 [0 0 0 0] ------- [1:255 1:254 32 0] 
r 5.061897730 _3_ AGT  --- 1223941506 diffusion 0 [0 0 0 0] ------- [3:255 3:254 32 0] 
r 5.063590674 _3_ AGT  --- 1223941507 diffusion 0 [0 0 0 0] ------- [3:255 3:254 32 0] 
r 5.067208427 _2_ AGT  --- 580900455 diffusion 0 [0 0 0 0] ------- [2:255 2:254 32 0] 
r 5.068900628 _2_ AGT  --- 580900456 diffusion 0 [0 0 0 0] ------- [2:255 2:254 32 0] 
r 5.074576580 _6_ AGT  --- 557533823 diffusion 0 [0 0 0 0] ------- [6:255 6:254 32 0] 
s 5.074577580 _6_ AGT  --- 1811076629 diffusion 0 [0 0 0 0] ------- [6:254 6:255 32 0] 
s 5.074577580 _6_ AGT  --- 1811076630 diffusion 0 [0 0 0 0] ------- [6:254 6:255 32 0] 
s 5.074577580 _6_ AGT  --- 1811076631 diffusion 0 [0 0 0 0] ------- [6:254 6:255 32 0] 
s 5.074577580 _6_ AGT  --- 1811076632 diffusion 0 [0 0 0 0] ------- [6:254 6:255 32 0] 
s 5.074577580 _6_ AGT  --- 1811076633 diffusion 0 [0 0 0 0] ------- [6:254 6:255 32 0] 
r 5.084833877 _4_ AGT  --- 611591129 diffusion 0 [0 0 0 0] ------- [4:255 4:254 32 0] 
r 5.086357130 _3_ AGT  --- 1223941508 diffusion 0 [0 0 0 0] ------- [3:255 3:254 32 0] 
r 5.088028992 _4_ AGT  --- 611591130 diffusion 0 [0 0 0 0] ------- [4:255 4:254 32 0] 
r 5.089571635 _6_ AGT  --- 557533824 diffusion 0 [0 0 0 0] ------- [6:255 6:254 32 0] 
r 5.091252956 _0_ AGT  --- 2045655603 diffusion 0 [0 0 0 0] ------- [0:255 0:254 32 0] 
s 5.091253956 _0_ AGT  --- 1190071891 diffusion 0 [0 0 0 0] ------- [0:254 0:255 32 0] 
s 5.091253956 _0_ AGT  --- 1190071892 diffusion 0 [0 0 0 0] ------- [0:254 0:255 32 0] 
r 5.095806602 _5_ AGT  --- 885480291 diffusion 0 [0 0 0 0] ------- [5:255 5:254 32 0] 
s 5.095807602 _5_ AGT  --- 905258843 diffusion 0 [0 0 0 0] ------- [5:254 5:255 32 0] 
s 5.095807602 _5_ AGT  --- 905258844 diffusion 0 [0 0 0 0] ------- [5:254 5:255 32 0] 
r 5.098533691 _8_ AGT  --- 1180591532 diffusion 0 [0 0 0 0] ------- [8:255 8:254 32 0] 
s 5.098534691 _8_ AGT  --- 379185996 diffusion 0 [0 0 0 0] ------- [8:254 8:255 32 0] 
s 5.098534691 _8_ AGT  --- 379185997 diffusion 0 [0 0 0 0] ------- [8:254 8:255 32 0] 
s 5.098534691 _8_ AGT  --- 379185998 diffusion 0 [0 0 0 0] ------- [8:254 8:255 32 0] 
r 5.100095330 _6_ AGT  --- 557533825 diffusion 0 [0 0 0 0] ------- [6:255 6:254 32 0] 
r 5.101987861 _6_ AGT  --- 557533826 diffusion 0 [0 0 0 0] ------- [6:255 6:254 32 0] 
r 5.103719207 _8_ AGT  --- 1180591533 diffusion 0 [0 0 0 0] ------- [8:255 8:254 32 0] 
r 5.107787550 _8_ AGT  --- 1180591534 diffusion 0 [0 0 0 0] ------- [8:255 8:254 32 0] 
r 5.109427994 _6_ AGT  --- 557533827 diffusion 0 [0 0 0 0] ------- [6:255 6:254 32 0] 
r 5.111270313 _5_ AGT  --- 885480292 diffusion 0 [0 0 0 0] ------- [5:255 5:254 32 0] 
r 5.112811991 _0_ AGT  --- 2045655604 diffusion 0 [0 0 0 0] ------- [0:255 0:254 32 0] 
s 5.123001000 _3_ AGT  --- 1437693533 diffusion 0 [0 0 0 0] ------- [3:254 3:255 32 0] 
r 5.123002000 _3_ AGT  --- 1223941509 diffusion 0 [0 0 0 0] ------- [3:255 3:254 32 0] 
s 5.123003000 _3_ AGT  --- 1437693534 diffusion 0 [0 0 0 0] ------- [3:254 3:255 32 0] 
s 5.123003000 _3_ AGT  --- 1437693535 diffusion 0 [0 0 0 0] ------- [3:254 3:255 32 0] 
s 5.123003000 _3_ AGT  --- 1437693536 diffusion 0 [0 0 0 0] ------- [3:254 3:255 32 0] 
D 5.123003000 _3_ IFQ  ARP 1566500011 diffusion 0 [0 0 3 800] ------- [3:255 7:255 32 7] 
s 5.123003000 _3_ AGT  --- 1437693537 diffusion 0 [0 0 0 0] ------- [3:254 3:255 32 0] 
s 5.123003000 _3_ AGT  --- 1437693538 diffusion 0 [0 0 0 0] ------- [3:254 3:255 32 0] 
s 5.123003000 _3_ AGT  --- 1437693539 diffusion 0 [0 0 0 0] ------- [3:254 3:255 32 0] 
r 5.127463099 _9_ AGT  --- 495722045 diffusion 0 [0 0 0 0] ------- [9:255 9:254 32 0] 
s 5.127464099 _9_ AGT  --- 1003364349 diffusion 0 [0 0 0 0] ------- [9:254 9:255 32 0] 
s 5.127464099 _9_ AGT  --- 1003364350 diffusion 0 [0 0 0 0] ------- [9:254 9:255 32 0] 
s 5.127464099 _9_ AGT  --- 1003364351 diffusion 0 [0 0 0 0] ------- [9:254 9:255 32 0] 
s 5.127464099 _9_ AGT  --- 1003364352 diffusion 0 [0 0 0 0] ------- [9:254 9:255 32 0] 
s 5.127464099 _9_ AGT  --- 1003364353 diffusion 0 [0 0 0 0] ------- [9:254 9:255 32 0] 
r 5.127465099 _9_ AGT  --- 1437693533 diffusion 0 [0 0 0 0] ------- [9:255 9:254 32 0] 
r 5.129064706 _4_ AGT  --- 611591131 diffusion 0 [0 0 0 0] ------- [4:255 4:254 32 0] 
s 5.129065706 _4_ AGT  --- 300615862 diffusion 0 [0 0 0 0] ------- [4:254 4:255 32 0] 
s 5.129065706 _4_ AGT  --- 300615863 diffusion 0 [0 0 0 0] ------- [4:254 4:255 32 0] 
s 5.129065706 _4_ AGT  --- 300615864 diffusion 0 [0 0 0 0] ------- [4:254 4:255 32 0] 
s 5.129065706 _4_ AGT  --- 300615865 diffusion 0 [0 0 0 0] ------- [4:254 4:255 32 0] 
s 5.129065706 _4_ AGT  --- 300615866 diffusion 0 [0 0 0 0] ------- [4:254 4:255 32 0] 
r 5.130986268 _3_ AGT  --- 1223941510 diffusion 0 [0 0 0 0] ------- [3:255 3:254 32 0] 
r 5.132606851 _4_ AGT  --- 611591132 diffusion 0 [0 0 0 0] ------- [4:255 4:254 32 0] 
r 5.134168458 _9_ AGT  --- 495722046 diffusion 0 [0 0 0 0] ------- [9:255 9:254 32 0] 
r 5.136050157 _2_ AGT  --- 580900457 diffusion 0 [0 0 0 0] ------- [2:255 2:254 32 0] 
s 5.136051157 _2_ AGT  --- 1566500017 diffusion 0 [0 0 0 0] ------- [2:254 2:255 32 0] 
s 5.136051157 _2_ AGT  --- 1566500018 diffusion 0 [0 0 0 0] ------- [2:254 2:255 32 0] 
s 5.136051157 _2_ AGT  --- 1566500019 diffusion 0 [0 0 0 0] ------- [2:254 2:255 32 0] 
s 5.136051157 _2_ AGT  --- 1566500020 diffusion 0 [0 0 0 0] ------- [2:254 2:255 32 0] 
s 5.136051157 _2_ AGT  --- 1566500021 diffusion 0 [0 0 0 0] ------- [2:254 2:255 32 0] 
r 5.137651330 _3_ AGT  --- 1223941511 diffusion 0 [0 0 0 0] ------- [3:255 3:254 32 0] 
r 5.139212949 _7_ AGT  --- 394266829 diffusion 0 [0 0 0 0] ------- [7:255 7:254 32 0] 
s 5.139213949 _7_ AGT  --- 1732828140 diffusion 0 [0 0 0 0] ------- [7:254 7:255 32 0] 
s 5.139213949 _7_ AGT  --- 1732828141 diffusion 0 [0 0 0 0] ------- [7:254 7:255 32 0] 
s 5.139213949 _7_ AGT  --- 1732828142 diffusion 0 [0 0 0 0] ------- [7:254 7:255 32 0] 
r 5.140774359 _2_ AGT  --- 580900458 diffusion 0 [0 0 0 0] ------- [2:255 2:254 32 0] 
r 5.142336719 _2_ AGT  --- 580900459 diffusion 0 [0 0 0 0] ------- [2:255 2:254 32 0] 
r 5.143938969 _1_ AGT  --- 1225933905 diffusion 0 [0 0 0 0] ------- [1:255 1:254 32 0] 
s 5.143939969 _1_ AGT  --- 528599282 diffusion 0 [0 0 0 0] ------- [1:254 1:255 32 0] 
s 5.143939969 _1_ AGT  --- 528599283 diffusion 0 [0 0 0 0] ------- [1:254 1:255 32 0] 
s 5.143939969 _1_ AGT  --- 528599284 diffusion 0 [0 0 0 0] ------- [1:254 1:255 32 0] 
r 5.145620876 _1_ AGT  --- 1225933906 diffusion 0 [0 0 0 0] ------- [1:255 1:254 32 0] 
r 5.147162307 _4_ AGT  --- 611591133 diffusion 0 [0 0 0 0] ------- [4:255 4:254 32 0] 
r 5.148703881 _9_ AGT  --- 495722047 diffusion 0 [0 0 0 0] ------- [9:255 9:254 32 0] 
r 5.150245979 _4_ AGT  --- 611591134 diffusion 0 [0 0 0 0] ------- [4:255 4:254 32 0] 
r 5.151828253 _3_ AGT  --- 1223941512 diffusion 0 [0 0 0 0] ------- [3:255 3:254 32 0] 
r 5.153410981 _2_ AGT  --- 580900460 diffusion 0 [0 0 0 0] ------- [2:255 2:254 32 0] 
r 5.155052338 _3_ AGT  --- 1223941513 diffusion 0 [0 0 0 0] ------- [3:255 3:254 32 0] 
r 5.156714384 _9_ AGT  --- 495722048 diffusion 0 [0 0 0 0] ------- [9:255 9:254 32 0] 
r 5.158257175 _6_ AGT  --- 557533828 diffusion 0 [0 0 0 0] ------- [6:255 6:254 32 0] 
s 5.158258175 _6_ AGT  --- 1811076634 diffusion 0 [0 0 0 0] ------- [6:254 6:255 32 0] 
s 5.158258175 _6_ AGT  --- 1811076635 diffusion 0 [0 0 0 0] ------- [6:254 6:255 32 0] 
s 5.158258175 _6_ AGT  --- 1811076636 diffusion 0 [0 0 0 0] ------- [6:254 6:255 32 0] 
s 5.158258175 _6_ AGT  --- 1811076637 diffusion 0 [0 0 0 0] ------- [6:254 6:255 32 0] 
s 5.158258175 _6_ AGT  --- 1811076638 diffusion 0 [0 0 0 0] ------- [6:254 6:255 32 0] 
r 5.159799587 _4_ AGT  --- 611591135 diffusion 0 [0 0 0 0] ------- [4:255 4:254 32 0] 
r 5.161362000 _6_ AGT  --- 557533829 diffusion 0 [0 0 0 0] ------- [6:255 6:254 32 0] 
r 5.163024449 _3_ AGT  --- 1223941514 diffusion 0 [0 0 0 0] ------- [3:255 3:254 32 0] 
r 5.164717215 _3_ AGT  --- 1223941515 diffusion 0 [0 0 0 0] ------- [3:255 3:254 32 0] 
r 5.166279339 _7_ AGT  --- 394266830 diffusion 0 [0 0 0 0] ------- [7:255 7:254 32 0] 
r 5.167822411 _7_ AGT  --- 394266831 diffusion 0 [0 0 0 0] ------- [7:255 7:254 32 0] 
r 5.169404083 _2_ AGT  --- 580900461 diffusion 0 [0 0 0 0] ------- [2:255 2:254 32 0] 
r 5.171426212 _1_ AGT  --- 1225933907 diffusion 0 [0 0 0 0] ------- [1:255 1:254 32 0] 
r 5.173669394 _5_ AGT  --- 885480293 diffusion 0 [0 0 0 0] ------- [5:255 5:254 32 0] 
s 5.173670394 _5_ AGT  --- 905258845 diffusion 0 [0 0 0 0] ------- [5:254 5:255 32 0] 
s 5.173670394 _5_ AGT  --- 905258846 diffusion 0 [0 0 0 0] ------- [5:254 5:255 32 0] 
r 5.175311360 _0_ AGT  --- 2045655605 diffusion 0 [0 0 0 0] ------- [0:255 0:254 32 0] 
s 5.175312360 _0_ AGT  --- 1190071893 diffusion 0 [0 0 0 0] ------- [0:254 0:255 32 0] 
s 5.175312360 _0_ AGT  --- 1190071894 diffusion 0 [0 0 0 0] ------- [0:254 0:255 32 0] 
r 5.177332244 _8_ AGT  --- 1180591535 diffusion 0 [0 0 0 0] ------- [8:255 8:254 32 0] 
s 5.177333244 _8_ AGT  --- 379185999 diffusion 0 [0 0 0 0] ------- [8:254 8:255 32 0] 
s 5.177333244 _8_ AGT  --- 379186000 diffusion 0 [0 0 0 0] ------- [8:254 8:255 32 0] 
s 5.177333244 _8_ AGT  --- 379186001 diffusion 0 [0 0 0 0] ------- [8:254 8:255 32 0] 
r 5.179813326 _6_ AGT  --- 557533830 diffusion 0 [0 0 0 0] ------- [6:255 6:254 32 0] 
r 5.181353918 _6_ AGT  --- 557533831 diffusion 0 [0 0 0 0] ------- [6:255 6:254 32 0] 
r 5.182995312 _8_ AGT  --- 1180591536 diffusion 0 [0 0 0 0] ------- [8:255 8:254 32 0] 
r 5.184677483 _5_ AGT  --- 885480294 diffusion 0 [0 0 0 0] ------- [5:255 5:254 32 0] 
r 5.186439161 _0_ AGT  --- 2045655606 diffusion 0 [0 0 0 0] ------- [0:255 0:254 32 0] 
r 5.188642132 _6_ AGT  --- 557533832 diffusion 0 [0 0 0 0] ------- [6:255 6:254 32 0] 
r 5.190564949 _8_ AGT  --- 1180591537 diffusion 0 [0 0 0 0] ------- [8:255 8:254 32 0] 
s 5.246001000 _4_ AGT  --- 300615867 diffusion 0 [0 0 0 0] ------- [4:254 4:255 32 0] 
r 5.246002000 _4_ AGT  --- 611591136 diffusion 0 [0 0 0 0] ------- [4:255 4:254 32 0] 
s 5.246003000 _4_ AGT  --- 300615868 diffusion 0 [0 0 0 0] ------- [4:254 4:255 32 0] 
s 5.246003000 _4_ AGT  --- 300615869 diffusion 0 [0 0 0 0] ------- [4:254 4:255 32 0] 
s 5.246003000 _4_ AGT  --- 300615870 diffusion 0 [0 0 0 0] ------- [4:254 4:255 32 0] 
s 5.246003000 _4_ AGT  --- 300615871 diffusion 0 [0 0 0 0] ------- [4:254 4:255 32 0] 
s 5.246003000 _4_ AGT  --- 300615872 diffusion 0 [0 0 0 0] ------- [4:254 4:255 32 0] 
r 5.247245607 _9_ AGT  --- 495722049 diffusion 0 [0 0 0 0] ------- [9:255 9:254 32 0] 
s 5.247246607 _9_ AGT  --- 1003364354 diffusion 0 [0 0 0 0] ------- [9:254 9:255 32 0] 
s 5.247246607 _9_ AGT  --- 1003364355 diffusion 0 [0 0 0 0] ------- [9:254 9:255 32 0] 
s 5.247246607 _9_ AGT  --- 1003364356 diffusion 0 [0 0 0 0] ------- [9:254 9:255 32 0] 
s 5.247246607 _9_ AGT  --- 1003364357 diffusion 0 [0 0 0 0] ------- [9:254 9:255 32 0] 
s 5.247246607 _9_ AGT  --- 1003364358 diffusion 0 [0 0 0 0] ------- [9:254 9:255 32 0] 
r 5.247247607 _9_ AGT  --- 300615867 diffusion 0 [0 0 0 0] ------- [9:255 9:254 32 0] 
r 5.248866725 _3_ AGT  --- 1223941516 diffusion 0 [0 0 0 0] ------- [3:255 3:254 32 0] 
s 5.248867725 _3_ AGT  --- 1437693540 diffusion 0 [0 0 0 0] ------- [3:254 3:255 32 0] 
s 5.248867725 _3_ AGT  --- 1437693541 diffusion 0 [0 0 0 0] ------- [3:254 3:255 32 0] 
s 5.248867725 _3_ AGT  --- 1437693542 diffusion 0 [0 0 0 0] ------- [3:254 3:255 32 0] 
s 5.248867725 _3_ AGT  --- 1437693543 diffusion 0 [0 0 0 0] ------- [3:254 3:255 32 0] 
s 5.248867725 _3_ AGT  --- 1437693544 diffusion 0 [0 0 0 0] ------- [3:254 3:255 32 0] 
s 5.248867725 _3_ AGT  --- 1437693545 diffusion 0 [0 0 0 0] ------- [3:254 3:255 32 0] 
r 5.250468689 _2_ AGT  --- 580900462 diffusion 0 [0 0 0 0] ------- [2:255 2:254 32 0] 
s 5.250469689 _2_ AGT  --- 1566500022 diffusion 0 [0 0 0 0] ------- [2:254 2:255 32 0] 
s 5.250469689 _2_ AGT  --- 1566500023 diffusion 0 [0 0 0 0] ------- [2:254 2:255 32 0] 
s 5.250469689 _2_ AGT  --- 1566500024 diffusion 0 [0 0 0 0] ------- [2:254 2:255 32 0] 
s 5.250469689 _2_ AGT  --- 1566500025 diffusion 0 [0 0 0 0] ------- [2:254 2:255 32 0] 
s 5.250469689 _2_ AGT  --- 1566500026 diffusion 0 [0 0 0 0] ------- [2:254 2:255 32 0] 
r 5.252110624 _4_ AGT  --- 611591137 diffusion 0 [0 0 0 0] ------- [4:255 4:254 32 0] 
r 5.253792198 _9_ AGT  --- 495722050 diffusion 0 [0 0 0 0] ------- [9:255 9:254 32 0] 
r 5.256192165 _1_ AGT  --- 1225933908 diffusion 0 [0 0 0 0] ------- [1:255 1:254 32 0] 
s 5.256193165 _1_ AGT  --- 528599285 diffusion 0 [0 0 0 0] ------- [1:254 1:255 32 0] 
s 5.256193165 _1_ AGT  --- 528599286 diffusion 0 [0 0 0 0] ------- [1:254 1:255 32 0] 
s 5.256193165 _1_ AGT  --- 528599287 diffusion 0 [0 0 0 0] ------- [1:254 1:255 32 0] 
r 5.257933596 _4_ AGT  --- 611591138 diffusion 0 [0 0 0 0] ------- [4:255 4:254 32 0] 
r 5.259494817 _9_ AGT  --- 495722051 diffusion 0 [0 0 0 0] ------- [9:255 9:254 32 0] 
r 5.261056915 _4_ AGT  --- 611591139 diffusion 0 [0 0 0 0] ------- [4:255 4:254 32 0] 
r 5.262638862 _3_ AGT  --- 1223941517 diffusion 0 [0 0 0 0] ------- [3:255 3:254 32 0] 
r 5.264160986 _7_ AGT  --- 394266832 diffusion 0 [0 0 0 0] ------- [7:255 7:254 32 0] 
s 5.264161986 _7_ AGT  --- 1732828143 diffusion 0 [0 0 0 0] ------- [7:254 7:255 32 0] 
s 5.264161986 _7_ AGT  --- 1732828144 diffusion 0 [0 0 0 0] ------- [7:254 7:255 32 0] 
s 5.264161986 _7_ AGT  --- 1732828145 diffusion 0 [0 0 0 0] ------- [7:254 7:255 32 0] 
r 5.265903672 _1_ AGT  --- 1225933909 diffusion 0 [0 0 0 0] ------- [1:255 1:254 32 0] 
r 5.267444854 _4_ AGT  --- 611591140 diffusion 0 [0 0 0 0] ------- [4:255 4:254 32 0] 
r 5.269087267 _6_ AGT  --- 557533833 diffusion 0 [0 0 0 0] ------- [6:255 6:254 32 0] 
s 5.269088267 _6_ AGT  --- 1811076639 diffusion 0 [0 0 0 0] ------- [6:254 6:255 32 0] 
s 5.269088267 _6_ AGT  --- 1811076640 diffusion 0 [0 0 0 0] ------- [6:254 6:255 32 0] 
s 5.269088267 _6_ AGT  --- 1811076641 diffusion 0 [0 0 0 0] ------- [6:254 6:255 32 0] 
s 5.269088267 _6_ AGT  --- 1811076642 diffusion 0 [0 0 0 0] ------- [6:254 6:255 32 0] 
s 5.269088267 _6_ AGT  --- 1811076643 diffusion 0 [0 0 0 0] ------- [6:254 6:255 32 0] 
r 5.270790387 _7_ AGT  --- 394266833 diffusion 0 [0 0 0 0] ------- [7:255 7:254 32 0] 
r 5.272352512 _2_ AGT  --- 580900463 diffusion 0 [0 0 0 0] ------- [2:255 2:254 32 0] 
r 5.274075019 _3_ AGT  --- 1223941518 diffusion 0 [0 0 0 0] ------- [3:255 3:254 32 0] 
r 5.275666936 _9_ AGT  --- 495722052 diffusion 0 [0 0 0 0] ------- [9:255 9:254 32 0] 
r 5.277307963 _3_ AGT  --- 1223941519 diffusion 0 [0 0 0 0] ------- [3:255 3:254 32 0] 
r 5.278951035 _3_ AGT  --- 1223941520 diffusion 0 [0 0 0 0] ------- [3:255 3:254 32 0] 
r 5.280532832 _1_ AGT  --- 1225933910 diffusion 0 [0 0 0 0] ------- [1:255 1:254 32 0] 
r 5.283074660 _4_ AGT  --- 611591141 diffusion 0 [0 0 0 0] ------- [4:255 4:254 32 0] 
r 5.284757913 _3_ AGT  --- 1223941521 diffusion 0 [0 0 0 0] ------- [3:255 3:254 32 0] 
r 5.287189743 _2_ AGT  --- 580900464 diffusion 0 [0 0 0 0] ------- [2:255 2:254 32 0] 
r 5.288801943 _2_ AGT  --- 580900465 diffusion 0 [0 0 0 0] ------- [2:255 2:254 32 0] 
r 5.290423549 _7_ AGT  --- 394266834 diffusion 0 [0 0 0 0] ------- [7:255 7:254 32 0] 
r 5.292166766 _6_ AGT  --- 557533834 diffusion 0 [0 0 0 0] ------- [6:255 6:254 32 0] 
r 5.294128700 _5_ AGT  --- 885480295 diffusion 0 [0 0 0 0] ------- [5:255 5:254 32 0] 
s 5.294129700 _5_ AGT  --- 905258847 diffusion 0 [0 0 0 0] ------- [5:254 5:255 32 0] 
s 5.294129700 _5_ AGT  --- 905258848 diffusion 0 [0 0 0 0] ------- [5:254 5:255 32 0] 
r 5.295770666 _0_ AGT  --- 2045655607 diffusion 0 [0 0 0 0] ------- [0:255 0:254 32 0] 
s 5.295771666 _0_ AGT  --- 1190071895 diffusion 0 [0 0 0 0] ------- [0:254 0:255 32 0] 
s 5.295771666 _0_ AGT  --- 1190071896 diffusion 0 [0 0 0 0] ------- [0:254 0:255 32 0] 
r 5.297411987 _6_ AGT  --- 557533835 diffusion 0 [0 0 0 0] ------- [6:255 6:254 32 0] 
r 5.299012431 _8_ AGT  --- 1180591538 diffusion 0 [0 0 0 0] ------- [8:255 8:254 32 0] 
s 5.299013431 _8_ AGT  --- 379186002 diffusion 0 [0 0 0 0] ------- [8:254 8:255 32 0] 
s 5.299013431 _8_ AGT  --- 379186003 diffusion 0 [0 0 0 0] ------- [8:254 8:255 32 0] 
s 5.299013431 _8_ AGT  --- 379186004 diffusion 0 [0 0 0 0] ------- [8:254 8:255 32 0] 
r 5.300613702 _8_ AGT  --- 1180591539 diffusion 0 [0 0 0 0] ------- [8:255 8:254 32 0] 
r 5.302414146 _6_ AGT  --- 557533836 diffusion 0 [0 0 0 0] ------- [6:255 6:254 32 0] 
r 5.304036725 _6_ AGT  --- 557533837 diffusion 0 [0 0 0 0] ------- [6:255 6:254 32 0] 
r 5.305819044 _5_ AGT  --- 885480296 diffusion 0 [0 0 0 0] ------- [5:255 5:254 32 0] 
r 5.307521216 _8_ AGT  --- 1180591540 diffusion 0 [0 0 0 0] ------- [8:255 8:254 32 0] 
r 5.309082169 _0_ AGT  --- 2045655608 diffusion 0 [0 0 0 0] ------- [0:255 0:254 32 0] 
r 5.311284404 _2_ AGT  --- 580900466 diffusion 0 [0 0 0 0] ------- [2:255 2:254 32 0] 
s 5.369001000 _5_ AGT  --- 905258849 diffusion 0 [0 0 0 0] ------- [5:254 5:255 32 0] 
r 5.369002000 _5_ AGT  --- 885480297 diffusion 0 [0 0 0 0] ------- [5:255 5:254 32 0] 
s 5.369003000 _5_ AGT  --- 905258850 diffusion 0 [0 0 0 0] ------- [5:254 5:255 32 0] 
s 5.369003000 _5_ AGT  --- 905258851 diffusion 0 [0 0 0 0] ------- [5:254 5:255 32 0] 
r 5.370365934 _6_ AGT  --- 557533838 diffusion 0 [0 0 0 0] ------- [6:255 6:254 32 0] 
s 5.370366934 _6_ AGT  --- 1811076644 diffusion 0 [0 0 0 0] ------- [6:254 6:255 32 0] 
s 5.370366934 _6_ AGT  --- 1811076645 diffusion 0 [0 0 0 0] ------- [6:254 6:255 32 0] 
s 5.370366934 _6_ AGT  --- 1811076646 diffusion 0 [0 0 0 0] ------- [6:254 6:255 32 0] 
s 5.370366934 _6_ AGT  --- 1811076647 diffusion 0 [0 0 0 0] ------- [6:254 6:255 32 0] 
s 5.370366934 _6_ AGT  --- 1811076648 diffusion 0 [0 0 0 0] ------- [6:254 6:255 32 0] 
r 5.372048750 _8_ AGT  --- 1180591541 diffusion 0 [0 0 0 0] ------- [8:255 8:254 32 0] 
s 5.372049750 _8_ AGT  --- 379186005 diffusion 0 [0 0 0 0] ------- [8:254 8:255 32 0] 
s 5.372049750 _8_ AGT  --- 379186006 diffusion 0 [0 0 0 0] ------- [8:254 8:255 32 0] 
s 5.372049750 _8_ AGT  --- 379186007 diffusion 0 [0 0 0 0] ------- [8:254 8:255 32 0] 
r 5.373609194 _6_ AGT  --- 557533839 diffusion 0 [0 0 0 0] ------- [6:255 6:254 32 0] 
r 5.375231514 _5_ AGT  --- 885480298 diffusion 0 [0 0 0 0] ------- [5:255 5:254 32 0] 
r 5.376993191 _0_ AGT  --- 2045655609 diffusion 0 [0 0 0 0] ------- [0:255 0:254 32 0] 
s 5.376994191 _0_ AGT  --- 1190071897 diffusion 0 [0 0 0 0] ------- [0:254 0:255 32 0] 
s 5.376994191 _0_ AGT  --- 1190071898 diffusion 0 [0 0 0 0] ------- [0:254 0:255 32 0] 
r 5.378536044 _4_ AGT  --- 611591142 diffusion 0 [0 0 0 0] ------- [4:255 4:254 32 0] 
s 5.378537044 _4_ AGT  --- 300615873 diffusion 0 [0 0 0 0] ------- [4:254 4:255 32 0] 
s 5.378537044 _4_ AGT  --- 300615874 diffusion 0 [0 0 0 0] ------- [4:254 4:255 32 0] 
s 5.378537044 _4_ AGT  --- 300615875 diffusion 0 [0 0 0 0] ------- [4:254 4:255 32 0] 
s 5.378537044 _4_ AGT  --- 300615876 diffusion 0 [0 0 0 0] ------- [4:254 4:255 32 0] 
s 5.378537044 _4_ AGT  --- 300615877 diffusion 0 [0 0 0 0] ------- [4:254 4:255 32 0] 
r 5.380139297 _3_ AGT  --- 1223941522 diffusion 0 [0 0 0 0] ------- [3:255 3:254 32 0] 
s 5.380140297 _3_ AGT  --- 1437693546 diffusion 0 [0 0 0 0] ------- [3:254 3:255 32 0] 