s 0.000001000 _0_ AGT  --- 1190071889 diffusion 0 [0 0 0 0] ------- [0:254 0:255 32 0] 
s 0.000001000 _1_ AGT  --- 528599277 diffusion 0 [0 0 0 0] ------- [1:254 1:255 32 0] 
s 0.000001000 _2_ AGT  --- 1566500007 diffusion 0 [0 0 0 0] ------- [2:254 2:255 32 0] 
s 0.000001000 _3_ AGT  --- 1437693523 diffusion 0 [0 0 0 0] ------- [3:254 3:255 32 0] 
s 0.000001000 _4_ AGT  --- 300615853 diffusion 0 [0 0 0 0] ------- [4:254 4:255 32 0] 
s 0.000001000 _5_ AGT  --- 905258839 diffusion 0 [0 0 0 0] ------- [5:254 5:255 32 0] 
s 0.000001000 _6_ AGT  --- 1811076627 diffusion 0 [0 0 0 0] ------- [6:254 6:255 32 0] 
s 0.000001000 _7_ AGT  --- 1732828135 diffusion 0 [0 0 0 0] ------- [7:254 7:255 32 0] 
s 0.000001000 _8_ AGT  --- 379185994 diffusion 0 [0 0 0 0] ------- [8:254 8:255 32 0] 
s 0.000001000 _9_ AGT  --- 1003364341 diffusion 0 [0 0 0 0] ------- [9:254 9:255 32 0] 
s 0.000001000 _0_ AGT  --- 1190071890 diffusion 0 [0 0 0 0] ------- [0:254 0:255 32 0] 
s 0.000001000 _0_ AGT  --- 1190071891 diffusion 0 [0 0 0 0] ------- [0:254 0:255 32 0] 
s 0.000001000 _0_ AGT  --- 1190071892 diffusion 0 [0 0 0 0] ------- [0:254 0:255 32 0] 
s 0.000001000 _1_ AGT  --- 528599278 diffusion 0 [0 0 0 0] ------- [1:254 1:255 32 0] 
s 0.000001000 _1_ AGT  --- 528599279 diffusion 0 [0 0 0 0] ------- [1:254 1:255 32 0] 
s 0.000001000 _1_ AGT  --- 528599280 diffusion 0 [0 0 0 0] ------- [1:254 1:255 32 0] 
s 0.000001000 _2_ AGT  --- 1566500008 diffusion 0 [0 0 0 0] ------- [2:254 2:255 32 0] 
s 0.000001000 _2_ AGT  --- 1566500009 diffusion 0 [0 0 0 0] ------- [2:254 2:255 32 0] 
s 0.000001000 _2_ AGT  --- 1566500010 diffusion 0 [0 0 0 0] ------- [2:254 2:255 32 0] 
s 0.000001000 _3_ AGT  --- 1437693524 diffusion 0 [0 0 0 0] ------- [3:254 3:255 32 0] 
s 0.000001000 _3_ AGT  --- 1437693525 diffusion 0 [0 0 0 0] ------- [3:254 3:255 32 0] 
s 0.000001000 _3_ AGT  --- 1437693526 diffusion 0 [0 0 0 0] ------- [3:254 3:255 32 0] 
s 0.000001000 _4_ AGT  --- 300615854 diffusion 0 [0 0 0 0] ------- [4:254 4:255 32 0] 
s 0.000001000 _4_ AGT  --- 300615855 diffusion 0 [0 0 0 0] ------- [4:254 4:255 32 0] 
s 0.000001000 _4_ AGT  --- 300615856 diffusion 0 [0 0 0 0] ------- [4:254 4:255 32 0] 
s 0.000001000 _5_ AGT  --- 905258840 diffusion 0 [0 0 0 0] ------- [5:254 5:255 32 0] 
s 0.000001000 _5_ AGT  --- 905258841 diffusion 0 [0 0 0 0] ------- [5:254 5:255 32 0] 
s 0.000001000 _5_ AGT  --- 905258842 diffusion 0 [0 0 0 0] ------- [5:254 5:255 32 0] 
s 0.000001000 _6_ AGT  --- 1811076628 diffusion 0 [0 0 0 0] ------- [6:254 6:255 32 0] 
s 0.000001000 _6_ AGT  --- 1811076629 diffusion 0 [0 0 0 0] ------- [6:254 6:255 32 0] 
s 0.000001000 _6_ AGT  --- 1811076630 diffusion 0 [0 0 0 0] ------- [6:254 6:255 32 0] 
s 0.000001000 _7_ AGT  --- 1732828136 diffusion 0 [0 0 0 0] ------- [7:254 7:255 32 0] 
s 0.000001000 _7_ AGT  --- 1732828137 diffusion 0 [0 0 0 0] ------- [7:254 7:255 32 0] 
s 0.000001000 _7_ AGT  --- 1732828138 diffusion 0 [0 0 0 0] ------- [7:254 7:255 32 0] 
s 0.000001000 _8_ AGT  --- 379185995 diffusion 0 [0 0 0 0] ------- [8:254 8:255 32 0] 
s 0.000001000 _8_ AGT  --- 379185996 diffusion 0 [0 0 0 0] ------- [8:254 8:255 32 0] 
s 0.000001000 _8_ AGT  --- 379185997 diffusion 0 [0 0 0 0] ------- [8:254 8:255 32 0] 
s 0.000001000 _9_ AGT  --- 1003364342 diffusion 0 [0 0 0 0] ------- [9:254 9:255 32 0] 
s 0.000001000 _9_ AGT  --- 1003364343 diffusion 0 [0 0 0 0] ------- [9:254 9:255 32 0] 
s 0.000001000 _9_ AGT  --- 1003364344 diffusion 0 [0 0 0 0] ------- [9:254 9:255 32 0] 
r 0.000534119 _6_ AGT  --- 557533818 diffusion 0 [0 0 0 0] ------- [6:255 6:254 32 0] 
r 0.000534225 _8_ AGT  --- 1180591529 diffusion 0 [0 0 0 0] ------- [8:255 8:254 32 0] 
r 0.000534328 _9_ AGT  --- 495722036 diffusion 0 [0 0 0 0] ------- [9:255 9:254 32 0] 
r 0.000534452 _3_ AGT  --- 1223941496 diffusion 0 [0 0 0 0] ------- [3:255 3:254 32 0] 
r 0.000534526 _5_ AGT  --- 885480288 diffusion 0 [0 0 0 0] ------- [5:255 5:254 32 0] 
r 0.000534557 _7_ AGT  --- 394266824 diffusion 0 [0 0 0 0] ------- [7:255 7:254 32 0] 
r 0.000534710 _1_ AGT  --- 1225933899 diffusion 0 [0 0 0 0] ------- [1:255 1:254 32 0] 
r 0.001417081 _3_ AGT  --- 1223941497 diffusion 0 [0 0 0 0] ------- [3:255 3:254 32 0] 
r 0.001417364 _1_ AGT  --- 1225933900 diffusion 0 [0 0 0 0] ------- [1:255 1:254 32 0] 
r 0.001417422 _9_ AGT  --- 495722037 diffusion 0 [0 0 0 0] ------- [9:255 9:254 32 0] 
r 0.001417477 _2_ AGT  --- 580900445 diffusion 0 [0 0 0 0] ------- [2:255 2:254 32 0] 
r 0.001417691 _6_ AGT  --- 557533819 diffusion 0 [0 0 0 0] ------- [6:255 6:254 32 0] 
r 0.002399275 _4_ AGT  --- 611591120 diffusion 0 [0 0 0 0] ------- [4:255 4:254 32 0] 
r 0.002399423 _9_ AGT  --- 495722038 diffusion 0 [0 0 0 0] ------- [9:255 9:254 32 0] 
r 0.002399533 _2_ AGT  --- 580900446 diffusion 0 [0 0 0 0] ------- [2:255 2:254 32 0] 
r 0.002399680 _1_ AGT  --- 1225933901 diffusion 0 [0 0 0 0] ------- [1:255 1:254 32 0] 
r 0.002399849 _7_ AGT  --- 394266825 diffusion 0 [0 0 0 0] ------- [7:255 7:254 32 0] 
r 0.002399897 _6_ AGT  --- 557533820 diffusion 0 [0 0 0 0] ------- [6:255 6:254 32 0] 
r 0.003282016 _0_ AGT  --- 2045655601 diffusion 0 [0 0 0 0] ------- [0:255 0:254 32 0] 
r 0.003282045 _8_ AGT  --- 1180591530 diffusion 0 [0 0 0 0] ------- [8:255 8:254 32 0] 
r 0.003282542 _5_ AGT  --- 885480289 diffusion 0 [0 0 0 0] ------- [5:255 5:254 32 0] 
r 0.003282701 _4_ AGT  --- 611591121 diffusion 0 [0 0 0 0] ------- [4:255 4:254 32 0] 
r 0.003282713 _3_ AGT  --- 1223941498 diffusion 0 [0 0 0 0] ------- [3:255 3:254 32 0] 
r 0.004305199 _2_ AGT  --- 580900447 diffusion 0 [0 0 0 0] ------- [2:255 2:254 32 0] 
r 0.004305297 _7_ AGT  --- 394266826 diffusion 0 [0 0 0 0] ------- [7:255 7:254 32 0] 
r 0.005249455 _0_ AGT  --- 2045655602 diffusion 0 [0 0 0 0] ------- [0:255 0:254 32 0] 
r 0.005249574 _6_ AGT  --- 557533821 diffusion 0 [0 0 0 0] ------- [6:255 6:254 32 0] 
r 0.005249653 _8_ AGT  --- 1180591531 diffusion 0 [0 0 0 0] ------- [8:255 8:254 32 0] 
r 0.006171801 _6_ AGT  --- 557533822 diffusion 0 [0 0 0 0] ------- [6:255 6:254 32 0] 
r 0.006171878 _0_ AGT  --- 2045655603 diffusion 0 [0 0 0 0] ------- [0:255 0:254 32 0] 
r 0.006172377 _5_ AGT  --- 885480290 diffusion 0 [0 0 0 0] ------- [5:255 5:254 32 0] 
r 0.007375499 _9_ AGT  --- 495722039 diffusion 0 [0 0 0 0] ------- [9:255 9:254 32 0] 
r 0.007375630 _2_ AGT  --- 580900448 diffusion 0 [0 0 0 0] ------- [2:255 2:254 32 0] 
r 0.007375841 _3_ AGT  --- 1223941499 diffusion 0 [0 0 0 0] ------- [3:255 3:254 32 0] 
s 0.133001000 _0_ AGT  --- 1190071893 diffusion 0 [0 0 0 0] ------- [0:254 0:255 32 0] 
r 0.133002000 _0_ AGT  --- 2045655604 diffusion 0 [0 0 0 0] ------- [0:255 0:254 32 0] 
s 0.133003000 _0_ AGT  --- 1190071894 diffusion 0 [0 0 0 0] ------- [0:254 0:255 32 0] 
r 0.133004000 _0_ AGT  --- 2045655605 diffusion 0 [0 0 0 0] ------- [0:255 0:254 32 0] 
s 0.240001000 _1_ AGT  --- 528599281 diffusion 0 [0 0 0 0] ------- [1:254 1:255 32 0] 
r 0.240002000 _1_ AGT  --- 1225933902 diffusion 0 [0 0 0 0] ------- [1:255 1:254 32 0] 
s 0.240003000 _1_ AGT  --- 528599282 diffusion 0 [0 0 0 0] ------- [1:254 1:255 32 0] 
r 0.240004000 _1_ AGT  --- 1225933903 diffusion 0 [0 0 0 0] ------- [1:255 1:254 32 0] 
s 0.310001000 _2_ AGT  --- 1566500011 diffusion 0 [0 0 0 0] ------- [2:254 2:255 32 0] 
r 0.310002000 _2_ AGT  --- 580900449 diffusion 0 [0 0 0 0] ------- [2:255 2:254 32 0] 
s 0.310003000 _2_ AGT  --- 1566500012 diffusion 0 [0 0 0 0] ------- [2:254 2:255 32 0] 
r 0.310004000 _2_ AGT  --- 580900450 diffusion 0 [0 0 0 0] ------- [2:255 2:254 32 0] 
s 0.410001000 _3_ AGT  --- 1437693527 diffusion 0 [0 0 0 0] ------- [3:254 3:255 32 0] 
r 0.410002000 _3_ AGT  --- 1223941500 diffusion 0 [0 0 0 0] ------- [3:255 3:254 32 0] 
s 0.410003000 _3_ AGT  --- 1437693528 diffusion 0 [0 0 0 0] ------- [3:254 3:255 32 0] 
r 0.410004000 _3_ AGT  --- 1223941501 diffusion 0 [0 0 0 0] ------- [3:255 3:254 32 0] 
s 1.027306199 _2_ AGT  --- 1566500013 diffusion 0 [0 0 0 0] ------- [2:254 2:255 32 0] 
r 1.028159527 _9_ AGT  --- 495722040 diffusion 0 [0 0 0 0] ------- [9:255 9:254 32 0] 
r 1.028159651 _3_ AGT  --- 1223941502 diffusion 0 [0 0 0 0] ------- [3:255 3:254 32 0] 
r 1.028159756 _7_ AGT  --- 394266827 diffusion 0 [0 0 0 0] ------- [7:255 7:254 32 0] 
r 1.028159789 _4_ AGT  --- 611591122 diffusion 0 [0 0 0 0] ------- [4:255 4:254 32 0] 
r 1.028159909 _1_ AGT  --- 1225933904 diffusion 0 [0 0 0 0] ------- [1:255 1:254 32 0] 
s 1.030283542 _5_ AGT  --- 905258843 diffusion 0 [0 0 0 0] ------- [5:254 5:255 32 0] 
r 1.031037068 _0_ AGT  --- 2045655606 diffusion 0 [0 0 0 0] ------- [0:255 0:254 32 0] 
r 1.031037187 _6_ AGT  --- 557533823 diffusion 0 [0 0 0 0] ------- [6:255 6:254 32 0] 
r 1.031037266 _8_ AGT  --- 1180591532 diffusion 0 [0 0 0 0] ------- [8:255 8:254 32 0] 
s 1.040400680 _1_ AGT  --- 528599283 diffusion 0 [0 0 0 0] ------- [1:254 1:255 32 0] 
r 1.041354157 _4_ AGT  --- 611591123 diffusion 0 [0 0 0 0] ------- [4:255 4:254 32 0] 
r 1.041354279 _3_ AGT  --- 1223941503 diffusion 0 [0 0 0 0] ------- [3:255 3:254 32 0] 
r 1.041354390 _2_ AGT  --- 580900451 diffusion 0 [0 0 0 0] ------- [2:255 2:254 32 0] 
s 1.064418081 _3_ AGT  --- 1437693529 diffusion 0 [0 0 0 0] ------- [3:254 3:255 32 0] 
r 1.065291275 _4_ AGT  --- 611591124 diffusion 0 [0 0 0 0] ------- [4:255 4:254 32 0] 
r 1.065291423 _9_ AGT  --- 495722041 diffusion 0 [0 0 0 0] ------- [9:255 9:254 32 0] 
r 1.065291533 _2_ AGT  --- 580900452 diffusion 0 [0 0 0 0] ------- [2:255 2:254 32 0] 
r 1.065291680 _1_ AGT  --- 1225933905 diffusion 0 [0 0 0 0] ------- [1:255 1:254 32 0] 
r 1.065291849 _7_ AGT  --- 394266828 diffusion 0 [0 0 0 0] ------- [7:255 7:254 32 0] 
r 1.065291897 _6_ AGT  --- 557533824 diffusion 0 [0 0 0 0] ------- [6:255 6:254 32 0] 
s 1.081283713 _3_ AGT  --- 1437693530 diffusion 0 [0 0 0 0] ------- [3:254 3:255 32 0] 
r 1.082156908 _4_ AGT  --- 611591125 diffusion 0 [0 0 0 0] ------- [4:255 4:254 32 0] 
r 1.082157056 _9_ AGT  --- 495722042 diffusion 0 [0 0 0 0] ------- [9:255 9:254 32 0] 
r 1.082157166 _2_ AGT  --- 580900453 diffusion 0 [0 0 0 0] ------- [2:255 2:254 32 0] 
r 1.082157312 _1_ AGT  --- 1225933906 diffusion 0 [0 0 0 0] ------- [1:255 1:254 32 0] 
r 1.082157482 _7_ AGT  --- 394266829 diffusion 0 [0 0 0 0] ------- [7:255 7:254 32 0] 
r 1.082157530 _6_ AGT  --- 557533825 diffusion 0 [0 0 0 0] ------- [6:255 6:254 32 0] 
s 1.083172801 _6_ AGT  --- 1811076631 diffusion 0 [0 0 0 0] ------- [6:254 6:255 32 0] 
r 1.084225920 _0_ AGT  --- 2045655607 diffusion 0 [0 0 0 0] ------- [0:255 0:254 32 0] 
r 1.084225949 _8_ AGT  --- 1180591533 diffusion 0 [0 0 0 0] ------- [8:255 8:254 32 0] 
r 1.084226446 _5_ AGT  --- 885480291 diffusion 0 [0 0 0 0] ------- [5:255 5:254 32 0] 
r 1.084226605 _4_ AGT  --- 611591126 diffusion 0 [0 0 0 0] ------- [4:255 4:254 32 0] 
r 1.084226617 _3_ AGT  --- 1223941504 diffusion 0 [0 0 0 0] ------- [3:255 3:254 32 0] 
s 1.185535452 _3_ AGT  --- 1437693531 diffusion 0 [0 0 0 0] ------- [3:254 3:255 32 0] 
r 1.186628647 _4_ AGT  --- 611591127 diffusion 0 [0 0 0 0] ------- [4:255 4:254 32 0] 
r 1.186628795 _9_ AGT  --- 495722043 diffusion 0 [0 0 0 0] ------- [9:255 9:254 32 0] 
r 1.186628905 _2_ AGT  --- 580900454 diffusion 0 [0 0 0 0] ------- [2:255 2:254 32 0] 
r 1.186629051 _1_ AGT  --- 1225933907 diffusion 0 [0 0 0 0] ------- [1:255 1:254 32 0] 
r 1.186629220 _7_ AGT  --- 394266830 diffusion 0 [0 0 0 0] ------- [7:255 7:254 32 0] 
r 1.186629269 _6_ AGT  --- 557533826 diffusion 0 [0 0 0 0] ------- [6:255 6:254 32 0] 
s 1.206400533 _2_ AGT  --- 1566500014 diffusion 0 [0 0 0 0] ------- [2:254 2:255 32 0] 
r 1.207393861 _9_ AGT  --- 495722044 diffusion 0 [0 0 0 0] ------- [9:255 9:254 32 0] 
r 1.207393986 _3_ AGT  --- 1223941505 diffusion 0 [0 0 0 0] ------- [3:255 3:254 32 0] 
r 1.207394090 _7_ AGT  --- 394266831 diffusion 0 [0 0 0 0] ------- [7:255 7:254 32 0] 
r 1.207394123 _4_ AGT  --- 611591128 diffusion 0 [0 0 0 0] ------- [4:255 4:254 32 0] 
r 1.207394243 _1_ AGT  --- 1225933908 diffusion 0 [0 0 0 0] ------- [1:255 1:254 32 0] 
s 1.235418691 _6_ AGT  --- 1811076632 diffusion 0 [0 0 0 0] ------- [6:254 6:255 32 0] 
r 1.236091810 _0_ AGT  --- 2045655608 diffusion 0 [0 0 0 0] ------- [0:255 0:254 32 0] 
r 1.236091839 _8_ AGT  --- 1180591534 diffusion 0 [0 0 0 0] ------- [8:255 8:254 32 0] 
r 1.236092336 _5_ AGT  --- 885480292 diffusion 0 [0 0 0 0] ------- [5:255 5:254 32 0] 
r 1.236092495 _4_ AGT  --- 611591129 diffusion 0 [0 0 0 0] ------- [4:255 4:254 32 0] 
r 1.236092507 _3_ AGT  --- 1223941506 diffusion 0 [0 0 0 0] ------- [3:255 3:254 32 0] 
s 1.291172878 _0_ AGT  --- 1190071895 diffusion 0 [0 0 0 0] ------- [0:254 0:255 32 0] 
r 1.291865997 _6_ AGT  --- 557533827 diffusion 0 [0 0 0 0] ------- [6:255 6:254 32 0] 
r 1.291866103 _8_ AGT  --- 1180591535 diffusion 0 [0 0 0 0] ------- [8:255 8:254 32 0] 
r 1.291866404 _5_ AGT  --- 885480293 diffusion 0 [0 0 0 0] ------- [5:255 5:254 32 0] 
s 1.297376630 _2_ AGT  --- 1566500015 diffusion 0 [0 0 0 0] ------- [2:254 2:255 32 0] 
r 1.298089958 _9_ AGT  --- 495722045 diffusion 0 [0 0 0 0] ------- [9:255 9:254 32 0] 
r 1.298090083 _3_ AGT  --- 1223941507 diffusion 0 [0 0 0 0] ------- [3:255 3:254 32 0] 
r 1.298090188 _7_ AGT  --- 394266832 diffusion 0 [0 0 0 0] ------- [7:255 7:254 32 0] 
r 1.298090220 _4_ AGT  --- 611591130 diffusion 0 [0 0 0 0] ------- [4:255 4:254 32 0] 
r 1.298090340 _1_ AGT  --- 1225933909 diffusion 0 [0 0 0 0] ------- [1:255 1:254 32 0] 
s 1.305250653 _8_ AGT  --- 379185998 diffusion 0 [0 0 0 0] ------- [8:254 8:255 32 0] 
s 1.305535225 _8_ AGT  --- 379185999 diffusion 0 [0 0 0 0] ------- [8:254 8:255 32 0] 
r 1.306323801 _6_ AGT  --- 557533828 diffusion 0 [0 0 0 0] ------- [6:255 6:254 32 0] 
r 1.306323878 _0_ AGT  --- 2045655609 diffusion 0 [0 0 0 0] ------- [0:255 0:254 32 0] 
r 1.306324377 _5_ AGT  --- 885480294 diffusion 0 [0 0 0 0] ------- [5:255 5:254 32 0] 
r 1.306825801 _6_ AGT  --- 557533829 diffusion 0 [0 0 0 0] ------- [6:255 6:254 32 0] 
r 1.306825878 _0_ AGT  --- 2045655610 diffusion 0 [0 0 0 0] ------- [0:255 0:254 32 0] 
r 1.306826377 _5_ AGT  --- 885480295 diffusion 0 [0 0 0 0] ------- [5:255 5:254 32 0] 
s 1.342283016 _0_ AGT  --- 1190071896 diffusion 0 [0 0 0 0] ------- [0:254 0:255 32 0] 
r 1.343396135 _6_ AGT  --- 557533830 diffusion 0 [0 0 0 0] ------- [6:255 6:254 32 0] 
r 1.343396241 _8_ AGT  --- 1180591536 diffusion 0 [0 0 0 0] ------- [8:255 8:254 32 0] 
r 1.343396542 _5_ AGT  --- 885480296 diffusion 0 [0 0 0 0] ------- [5:255 5:254 32 0] 
s 1.353535526 _5_ AGT  --- 905258844 diffusion 0 [0 0 0 0] ------- [5:254 5:255 32 0] 
s 1.354173377 _5_ AGT  --- 905258845 diffusion 0 [0 0 0 0] ------- [5:254 5:255 32 0] 
r 1.354309052 _0_ AGT  --- 2045655611 diffusion 0 [0 0 0 0] ------- [0:255 0:254 32 0] 
r 1.354309171 _6_ AGT  --- 557533831 diffusion 0 [0 0 0 0] ------- [6:255 6:254 32 0] 
r 1.354309250 _8_ AGT  --- 1180591537 diffusion 0 [0 0 0 0] ------- [8:255 8:254 32 0] 
r 1.355371052 _0_ AGT  --- 2045655612 diffusion 0 [0 0 0 0] ------- [0:255 0:254 32 0] 
r 1.355371171 _6_ AGT  --- 557533832 diffusion 0 [0 0 0 0] ------- [6:255 6:254 32 0] 
r 1.355371250 _8_ AGT  --- 1180591538 diffusion 0 [0 0 0 0] ------- [8:255 8:254 32 0] 
s 1.384250455 _0_ AGT  --- 1190071897 diffusion 0 [0 0 0 0] ------- [0:254 0:255 32 0] 
r 1.384863574 _6_ AGT  --- 557533833 diffusion 0 [0 0 0 0] ------- [6:255 6:254 32 0] 
r 1.384863680 _8_ AGT  --- 1180591539 diffusion 0 [0 0 0 0] ------- [8:255 8:254 32 0] 
r 1.384863981 _5_ AGT  --- 885480297 diffusion 0 [0 0 0 0] ------- [5:255 5:254 32 0] 
s 1.405535119 _6_ AGT  --- 1811076633 diffusion 0 [0 0 0 0] ------- [6:254 6:255 32 0] 
r 1.406548238 _0_ AGT  --- 2045655613 diffusion 0 [0 0 0 0] ------- [0:255 0:254 32 0] 
r 1.406548267 _8_ AGT  --- 1180591540 diffusion 0 [0 0 0 0] ------- [8:255 8:254 32 0] 
r 1.406548764 _5_ AGT  --- 885480298 diffusion 0 [0 0 0 0] ------- [5:255 5:254 32 0] 
r 1.406548923 _4_ AGT  --- 611591131 diffusion 0 [0 0 0 0] ------- [4:255 4:254 32 0] 
r 1.406548935 _3_ AGT  --- 1223941508 diffusion 0 [0 0 0 0] ------- [3:255 3:254 32 0] 
s 1.413250574 _6_ AGT  --- 1811076634 diffusion 0 [0 0 0 0] ------- [6:254 6:255 32 0] 
r 1.414363693 _0_ AGT  --- 2045655614 diffusion 0 [0 0 0 0] ------- [0:255 0:254 32 0] 
r 1.414363722 _8_ AGT  --- 1180591541 diffusion 0 [0 0 0 0] ------- [8:255 8:254 32 0] 
r 1.414364219 _5_ AGT  --- 885480299 diffusion 0 [0 0 0 0] ------- [5:255 5:254 32 0] 
r 1.414364378 _4_ AGT  --- 611591132 diffusion 0 [0 0 0 0] ------- [4:255 4:254 32 0] 
r 1.414364390 _3_ AGT  --- 1223941509 diffusion 0 [0 0 0 0] ------- [3:255 3:254 32 0] 
s 1.440535328 _9_ AGT  --- 1003364345 diffusion 0 [0 0 0 0] ------- [9:254 9:255 32 0] 
r 1.441368656 _2_ AGT  --- 580900455 diffusion 0 [0 0 0 0] ------- [2:255 2:254 32 0] 
r 1.441368670 _3_ AGT  --- 1223941510 diffusion 0 [0 0 0 0] ------- [3:255 3:254 32 0] 
r 1.441368754 _7_ AGT  --- 394266833 diffusion 0 [0 0 0 0] ------- [7:255 7:254 32 0] 
r 1.441368864 _4_ AGT  --- 611591133 diffusion 0 [0 0 0 0] ------- [4:255 4:254 32 0] 
s 1.460283701 _4_ AGT  --- 300615857 diffusion 0 [0 0 0 0] ------- [4:254 4:255 32 0] 
r 1.461156896 _3_ AGT  --- 1223941511 diffusion 0 [0 0 0 0] ------- [3:255 3:254 32 0] 
r 1.461157178 _1_ AGT  --- 1225933910 diffusion 0 [0 0 0 0] ------- [1:255 1:254 32 0] 
r 1.461157237 _9_ AGT  --- 495722046 diffusion 0 [0 0 0 0] ------- [9:255 9:254 32 0] 
r 1.461157291 _2_ AGT  --- 580900456 diffusion 0 [0 0 0 0] ------- [2:255 2:254 32 0] 
r 1.461157506 _6_ AGT  --- 557533834 diffusion 0 [0 0 0 0] ------- [6:255 6:254 32 0] 
s 1.463400275 _4_ AGT  --- 300615858 diffusion 0 [0 0 0 0] ------- [4:254 4:255 32 0] 
r 1.464493469 _3_ AGT  --- 1223941512 diffusion 0 [0 0 0 0] ------- [3:255 3:254 32 0] 
r 1.464493752 _1_ AGT  --- 1225933911 diffusion 0 [0 0 0 0] ------- [1:255 1:254 32 0] 
r 1.464493811 _9_ AGT  --- 495722047 diffusion 0 [0 0 0 0] ------- [9:255 9:254 32 0] 
r 1.464493865 _2_ AGT  --- 580900457 diffusion 0 [0 0 0 0] ------- [2:255 2:254 32 0] 
r 1.464494079 _6_ AGT  --- 557533835 diffusion 0 [0 0 0 0] ------- [6:255 6:254 32 0] 
s 1.466001000 _7_ AGT  --- 1732828139 diffusion 0 [0 0 0 0] ------- [7:254 7:255 32 0] 
r 1.466002000 _7_ AGT  --- 394266834 diffusion 0 [0 0 0 0] ------- [7:255 7:254 32 0] 
s 1.466003000 _7_ AGT  --- 1732828140 diffusion 0 [0 0 0 0] ------- [7:254 7:255 32 0] 
r 1.466004000 _7_ AGT  --- 394266835 diffusion 0 [0 0 0 0] ------- [7:255 7:254 32 0] 
s 1.555005000 _7_ AGT  --- 1732828141 diffusion 0 [0 0 0 0] ------- [7:254 7:255 32 0] 
r 1.555006000 _7_ AGT  --- 394266836 diffusion 0 [0 0 0 0] ------- [7:255 7:254 32 0] 
s 1.555007000 _7_ AGT  --- 1732828142 diffusion 0 [0 0 0 0] ------- [7:254 7:255 32 0] 
r 1.556020426 _9_ AGT  --- 495722048 diffusion 0 [0 0 0 0] ------- [9:255 9:254 32 0] 
r 1.556020557 _2_ AGT  --- 580900458 diffusion 0 [0 0 0 0] ------- [2:255 2:254 32 0] 
r 1.556020768 _3_ AGT  --- 1223941513 diffusion 0 [0 0 0 0] ------- [3:255 3:254 32 0] 
s 1.556021426 _9_ AGT  --- 1003364346 diffusion 0 [0 0 0 0] ------- [9:254 9:255 32 0] 
s 1.556021557 _2_ AGT  --- 1566500016 diffusion 0 [0 0 0 0] ------- [2:254 2:255 32 0] 
s 1.556021768 _3_ AGT  --- 1437693532 diffusion 0 [0 0 0 0] ------- [3:254 3:255 32 0] 
r 1.556022426 _9_ AGT  --- 495722049 diffusion 0 [0 0 0 0] ------- [9:255 9:254 32 0] 
r 1.556022557 _2_ AGT  --- 580900459 diffusion 0 [0 0 0 0] ------- [2:255 2:254 32 0] 
r 1.556022768 _3_ AGT  --- 1223941514 diffusion 0 [0 0 0 0] ------- [3:255 3:254 32 0] 
s 1.556023557 _2_ AGT  --- 1566500017 diffusion 0 [0 0 0 0] ------- [2:254 2:255 32 0] 
s 1.556023768 _3_ AGT  --- 1437693533 diffusion 0 [0 0 0 0] ------- [3:254 3:255 32 0] 
r 1.556024557 _2_ AGT  --- 580900460 diffusion 0 [0 0 0 0] ------- [2:255 2:254 32 0] 
r 1.556024768 _3_ AGT  --- 1223941515 diffusion 0 [0 0 0 0] ------- [3:255 3:254 32 0] 
s 1.556025557 _2_ AGT  --- 1566500018 diffusion 0 [0 0 0 0] ------- [2:254 2:255 32 0] 
s 1.556025768 _3_ AGT  --- 1437693534 diffusion 0 [0 0 0 0] ------- [3:254 3:255 32 0] 
r 1.556026557 _2_ AGT  --- 0 diffusion 0 [0 0 0 0] ------- [2:255 2:254 32 0] 
r 1.556026768 _3_ AGT  --- 0 diffusion 0 [0 0 0 0] ------- [3:255 3:254 32 0] 
s 1.621535557 _7_ AGT  --- 1732828143 diffusion 0 [0 0 0 0] ------- [7:254 7:255 32 0] 
r 1.622588983 _9_ AGT  --- 495722050 diffusion 0 [0 0 0 0] ------- [9:255 9:254 32 0] 
r 1.622589114 _2_ AGT  --- 580900461 diffusion 0 [0 0 0 0] ------- [2:255 2:254 32 0] 
r 1.622589325 _3_ AGT  --- 1223941516 diffusion 0 [0 0 0 0] ------- [3:255 3:254 32 0] 
s 1.637023557 _2_ AGT  --- 1566500019 diffusion 0 [0 0 0 0] ------- [2:254 2:255 32 0] 
s 1.637023768 _3_ AGT  --- 1437693535 diffusion 0 [0 0 0 0] ------- [3:254 3:255 32 0] 
r 1.637024557 _2_ AGT  --- 580900462 diffusion 0 [0 0 0 0] ------- [2:255 2:254 32 0] 
r 1.637024768 _3_ AGT  --- 1223941517 diffusion 0 [0 0 0 0] ------- [3:255 3:254 32 0] 
s 1.637025557 _2_ AGT  --- 1566500020 diffusion 0 [0 0 0 0] ------- [2:254 2:255 32 0] 
s 1.637025768 _3_ AGT  --- 1437693536 diffusion 0 [0 0 0 0] ------- [3:254 3:255 32 0] 
r 1.637858885 _9_ AGT  --- 495722051 diffusion 0 [0 0 0 0] ------- [9:255 9:254 32 0] 
r 1.637859009 _3_ AGT  --- 1223941518 diffusion 0 [0 0 0 0] ------- [3:255 3:254 32 0] 
r 1.637859114 _7_ AGT  --- 394266837 diffusion 0 [0 0 0 0] ------- [7:255 7:254 32 0] 
r 1.637859147 _4_ AGT  --- 611591134 diffusion 0 [0 0 0 0] ------- [4:255 4:254 32 0] 
r 1.637859267 _1_ AGT  --- 1225933912 diffusion 0 [0 0 0 0] ------- [1:255 1:254 32 0] 
s 1.637859885 _9_ AGT  --- 1003364347 diffusion 0 [0 0 0 0] ------- [9:254 9:255 32 0] 
s 1.637860009 _3_ AGT  --- 1437693537 diffusion 0 [0 0 0 0] ------- [3:254 3:255 32 0] 
s 1.637860114 _7_ AGT  --- 1732828144 diffusion 0 [0 0 0 0] ------- [7:254 7:255 32 0] 
s 1.637860147 _4_ AGT  --- 300615859 diffusion 0 [0 0 0 0] ------- [4:254 4:255 32 0] 
s 1.637860267 _1_ AGT  --- 528599284 diffusion 0 [0 0 0 0] ------- [1:254 1:255 32 0] 
r 1.637860885 _9_ AGT  --- 495722052 diffusion 0 [0 0 0 0] ------- [9:255 9:254 32 0] 
r 1.637861009 _3_ AGT  --- 1223941519 diffusion 0 [0 0 0 0] ------- [3:255 3:254 32 0] 
r 1.637861114 _7_ AGT  --- 394266838 diffusion 0 [0 0 0 0] ------- [7:255 7:254 32 0] 
r 1.637861147 _4_ AGT  --- 611591135 diffusion 0 [0 0 0 0] ------- [4:255 4:254 32 0] 
r 1.637861267 _1_ AGT  --- 1225933913 diffusion 0 [0 0 0 0] ------- [1:255 1:254 32 0] 
s 1.637862267 _1_ AGT  --- 528599285 diffusion 0 [0 0 0 0] ------- [1:254 1:255 32 0] 
r 1.637863267 _1_ AGT  --- 1225933914 diffusion 0 [0 0 0 0] ------- [1:255 1:254 32 0] 
s 1.637864267 _1_ AGT  --- 528599286 diffusion 0 [0 0 0 0] ------- [1:254 1:255 32 0] 
r 1.637865267 _1_ AGT  --- 0 diffusion 0 [0 0 0 0] ------- [1:255 1:254 32 0] 
r 1.638541204 _4_ AGT  --- 611591136 diffusion 0 [0 0 0 0] ------- [4:255 4:254 32 0] 
r 1.638541352 _9_ AGT  --- 495722053 diffusion 0 [0 0 0 0] ------- [9:255 9:254 32 0] 
r 1.638541462 _2_ AGT  --- 580900463 diffusion 0 [0 0 0 0] ------- [2:255 2:254 32 0] 
r 1.638541608 _1_ AGT  --- 1225933915 diffusion 0 [0 0 0 0] ------- [1:255 1:254 32 0] 
r 1.638541778 _7_ AGT  --- 394266839 diffusion 0 [0 0 0 0] ------- [7:255 7:254 32 0] 
r 1.638541826 _6_ AGT  --- 557533836 diffusion 0 [0 0 0 0] ------- [6:255 6:254 32 0] 
s 1.638542204 _4_ AGT  --- 300615860 diffusion 0 [0 0 0 0] ------- [4:254 4:255 32 0] 
s 1.638542352 _9_ AGT  --- 1003364348 diffusion 0 [0 0 0 0] ------- [9:254 9:255 32 0] 
s 1.638542462 _2_ AGT  --- 1566500021 diffusion 0 [0 0 0 0] ------- [2:254 2:255 32 0] 
s 1.638542608 _1_ AGT  --- 528599287 diffusion 0 [0 0 0 0] ------- [1:254 1:255 32 0] 
s 1.638542778 _7_ AGT  --- 1732828145 diffusion 0 [0 0 0 0] ------- [7:254 7:255 32 0] 
s 1.638542826 _6_ AGT  --- 1811076635 diffusion 0 [0 0 0 0] ------- [6:254 6:255 32 0] 
r 1.638543204 _4_ AGT  --- 611591137 diffusion 0 [0 0 0 0] ------- [4:255 4:254 32 0] 
r 1.638543352 _9_ AGT  --- 495722054 diffusion 0 [0 0 0 0] ------- [9:255 9:254 32 0] 
r 1.638543462 _2_ AGT  --- 580900464 diffusion 0 [0 0 0 0] ------- [2:255 2:254 32 0] 
r 1.638543608 _1_ AGT  --- 1225933916 diffusion 0 [0 0 0 0] ------- [1:255 1:254 32 0] 
r 1.638543778 _7_ AGT  --- 394266840 diffusion 0 [0 0 0 0] ------- [7:255 7:254 32 0] 
r 1.638543826 _6_ AGT  --- 557533837 diffusion 0 [0 0 0 0] ------- [6:255 6:254 32 0] 
s 1.656023426 _9_ AGT  --- 1003364349 diffusion 0 [0 0 0 0] ------- [9:254 9:255 32 0] 
r 1.656024426 _9_ AGT  --- 495722055 diffusion 0 [0 0 0 0] ------- [9:255 9:254 32 0] 
s 1.656025426 _9_ AGT  --- 1003364350 diffusion 0 [0 0 0 0] ------- [9:254 9:255 32 0] 
r 1.657018754 _2_ AGT  --- 580900465 diffusion 0 [0 0 0 0] ------- [2:255 2:254 32 0] 
r 1.657018768 _3_ AGT  --- 1223941520 diffusion 0 [0 0 0 0] ------- [3:255 3:254 32 0] 
r 1.657018852 _7_ AGT  --- 394266841 diffusion 0 [0 0 0 0] ------- [7:255 7:254 32 0] 
r 1.657018961 _4_ AGT  --- 611591138 diffusion 0 [0 0 0 0] ------- [4:255 4:254 32 0] 
s 1.657019754 _2_ AGT  --- 1566500022 diffusion 0 [0 0 0 0] ------- [2:254 2:255 32 0] 
s 1.657019768 _3_ AGT  --- 1437693538 diffusion 0 [0 0 0 0] ------- [3:254 3:255 32 0] 
s 1.657019852 _7_ AGT  --- 1732828146 diffusion 0 [0 0 0 0] ------- [7:254 7:255 32 0] 
s 1.657019961 _4_ AGT  --- 300615861 diffusion 0 [0 0 0 0] ------- [4:254 4:255 32 0] 
r 1.657020754 _2_ AGT  --- 580900466 diffusion 0 [0 0 0 0] ------- [2:255 2:254 32 0] 
r 1.657020768 _3_ AGT  --- 1223941521 diffusion 0 [0 0 0 0] ------- [3:255 3:254 32 0] 
r 1.657020852 _7_ AGT  --- 394266842 diffusion 0 [0 0 0 0] ------- [7:255 7:254 32 0] 
r 1.657020961 _4_ AGT  --- 611591139 diffusion 0 [0 0 0 0] ------- [4:255 4:254 32 0] 
s 1.728400423 _9_ AGT  --- 1003364351 diffusion 0 [0 0 0 0] ------- [9:254 9:255 32 0] 
r 1.729373751 _2_ AGT  --- 580900467 diffusion 0 [0 0 0 0] ------- [2:255 2:254 32 0] 
r 1.729373765 _3_ AGT  --- 1223941522 diffusion 0 [0 0 0 0] ------- [3:255 3:254 32 0] 
r 1.729373849 _7_ AGT  --- 394266843 diffusion 0 [0 0 0 0] ------- [7:255 7:254 32 0] 
r 1.729373959 _4_ AGT  --- 611591140 diffusion 0 [0 0 0 0] ------- [4:255 4:254 32 0] 
s 1.738862267 _1_ AGT  --- 528599288 diffusion 0 [0 0 0 0] ------- [1:254 1:255 32 0] 
r 1.738863267 _1_ AGT  --- 1225933917 diffusion 0 [0 0 0 0] ------- [1:255 1:254 32 0] 
s 1.738864267 _1_ AGT  --- 528599289 diffusion 0 [0 0 0 0] ------- [1:254 1:255 32 0] 
r 1.739477744 _4_ AGT  --- 611591141 diffusion 0 [0 0 0 0] ------- [4:255 4:254 32 0] 
r 1.739477866 _3_ AGT  --- 1223941523 diffusion 0 [0 0 0 0] ------- [3:255 3:254 32 0] 
r 1.739477977 _2_ AGT  --- 580900468 diffusion 0 [0 0 0 0] ------- [2:255 2:254 32 0] 
s 1.739478744 _4_ AGT  --- 300615862 diffusion 0 [0 0 0 0] ------- [4:254 4:255 32 0] 
s 1.739478866 _3_ AGT  --- 1437693539 diffusion 0 [0 0 0 0] ------- [3:254 3:255 32 0] 
s 1.739478977 _2_ AGT  --- 1566500023 diffusion 0 [0 0 0 0] ------- [2:254 2:255 32 0] 
r 1.739479744 _4_ AGT  --- 611591142 diffusion 0 [0 0 0 0] ------- [4:255 4:254 32 0] 
r 1.739479866 _3_ AGT  --- 1223941524 diffusion 0 [0 0 0 0] ------- [3:255 3:254 32 0] 
r 1.739479977 _2_ AGT  --- 580900469 diffusion 0 [0 0 0 0] ------- [2:255 2:254 32 0] 
s 1.747544826 _6_ AGT  --- 1811076636 diffusion 0 [0 0 0 0] ------- [6:254 6:255 32 0] 
r 1.747545826 _6_ AGT  --- 557533838 diffusion 0 [0 0 0 0] ------- [6:255 6:254 32 0] 
s 1.747546826 _6_ AGT  --- 1811076637 diffusion 0 [0 0 0 0] ------- [6:254 6:255 32 0] 
r 1.748599945 _0_ AGT  --- 2045655615 diffusion 0 [0 0 0 0] ------- [0:255 0:254 32 0] 
r 1.748599974 _8_ AGT  --- 1180591542 diffusion 0 [0 0 0 0] ------- [8:255 8:254 32 0] 
r 1.748600470 _5_ AGT  --- 885480300 diffusion 0 [0 0 0 0] ------- [5:255 5:254 32 0] 
r 1.748600630 _4_ AGT  --- 611591143 diffusion 0 [0 0 0 0] ------- [4:255 4:254 32 0] 
r 1.748600642 _3_ AGT  --- 1223941525 diffusion 0 [0 0 0 0] ------- [3:255 3:254 32 0] 
s 1.748600945 _0_ AGT  --- 1190071898 diffusion 0 [0 0 0 0] ------- [0:254 0:255 32 0] 
s 1.748600974 _8_ AGT  --- 379186000 diffusion 0 [0 0 0 0] ------- [8:254 8:255 32 0] 
s 1.748601470 _5_ AGT  --- 905258846 diffusion 0 [0 0 0 0] ------- [5:254 5:255 32 0] 
s 1.748601630 _4_ AGT  --- 300615863 diffusion 0 [0 0 0 0] ------- [4:254 4:255 32 0] 
s 1.748601642 _3_ AGT  --- 1437693540 diffusion 0 [0 0 0 0] ------- [3:254 3:255 32 0] 
r 1.748601945 _0_ AGT  --- 2045655616 diffusion 0 [0 0 0 0] ------- [0:255 0:254 32 0] 
r 1.748601974 _8_ AGT  --- 1180591543 diffusion 0 [0 0 0 0] ------- [8:255 8:254 32 0] 
r 1.748602470 _5_ AGT  --- 885480301 diffusion 0 [0 0 0 0] ------- [5:255 5:254 32 0] 
r 1.748602630 _4_ AGT  --- 611591144 diffusion 0 [0 0 0 0] ------- [4:255 4:254 32 0] 
r 1.748602642 _3_ AGT  --- 1223941526 diffusion 0 [0 0 0 0] ------- [3:255 3:254 32 0] 
s 1.748602945 _0_ AGT  --- 1190071899 diffusion 0 [0 0 0 0] ------- [0:254 0:255 32 0] 
r 1.748603945 _0_ AGT  --- 2045655617 diffusion 0 [0 0 0 0] ------- [0:255 0:254 32 0] 
s 1.748604945 _0_ AGT  --- 1190071900 diffusion 0 [0 0 0 0] ------- [0:254 0:255 32 0] 
r 1.748605945 _0_ AGT  --- 0 diffusion 0 [0 0 0 0] ------- [0:255 0:254 32 0] 
s 1.756862147 _4_ AGT  --- 300615864 diffusion 0 [0 0 0 0] ------- [4:254 4:255 32 0] 
r 1.756863147 _4_ AGT  --- 611591145 diffusion 0 [0 0 0 0] ------- [4:255 4:254 32 0] 
s 1.756864147 _4_ AGT  --- 300615865 diffusion 0 [0 0 0 0] ------- [4:254 4:255 32 0] 
r 1.757877341 _3_ AGT  --- 1223941527 diffusion 0 [0 0 0 0] ------- [3:255 3:254 32 0] 
r 1.757877624 _1_ AGT  --- 1225933918 diffusion 0 [0 0 0 0] ------- [1:255 1:254 32 0] 
r 1.757877683 _9_ AGT  --- 495722056 diffusion 0 [0 0 0 0] ------- [9:255 9:254 32 0] 
r 1.757877737 _2_ AGT  --- 580900470 diffusion 0 [0 0 0 0] ------- [2:255 2:254 32 0] 
r 1.757877951 _6_ AGT  --- 557533839 diffusion 0 [0 0 0 0] ------- [6:255 6:254 32 0] 
s 1.757878341 _3_ AGT  --- 1437693541 diffusion 0 [0 0 0 0] ------- [3:254 3:255 32 0] 
s 1.757878624 _1_ AGT  --- 528599290 diffusion 0 [0 0 0 0] ------- [1:254 1:255 32 0] 
s 1.757878683 _9_ AGT  --- 1003364352 diffusion 0 [0 0 0 0] ------- [9:254 9:255 32 0] 
s 1.757878737 _2_ AGT  --- 1566500024 diffusion 0 [0 0 0 0] ------- [2:254 2:255 32 0] 