s 0.000001000 _0_ AGT  --- 1190071889 diffusion 0 [0 0 0 0] ------- [0:254 0:255 32 0] 
r 0.000001000 _0_ RTR  --- 1190071889 diffusion 0 [0 0 0 0] ------- [0:254 0:255 32 0] 
s 0.000001000 _1_ AGT  --- 528599277 diffusion 0 [0 0 0 0] ------- [1:254 1:255 32 0] 
r 0.000001000 _1_ RTR  --- 528599277 diffusion 0 [0 0 0 0] ------- [1:254 1:255 32 0] 
s 0.000001000 _2_ AGT  --- 1566500007 diffusion 0 [0 0 0 0] ------- [2:254 2:255 32 0] 
r 0.000001000 _2_ RTR  --- 1566500007 diffusion 0 [0 0 0 0] ------- [2:254 2:255 32 0] 
s 0.000001000 _3_ AGT  --- 1437693523 diffusion 0 [0 0 0 0] ------- [3:254 3:255 32 0] 
r 0.000001000 _3_ RTR  --- 1437693523 diffusion 0 [0 0 0 0] ------- [3:254 3:255 32 0] 
s 0.000001000 _4_ AGT  --- 300615853 diffusion 0 [0 0 0 0] ------- [4:254 4:255 32 0] 
r 0.000001000 _4_ RTR  --- 300615853 diffusion 0 [0 0 0 0] ------- [4:254 4:255 32 0] 
s 0.123001000 _0_ AGT  --- 1190071890 diffusion 0 [0 0 0 0] ------- [0:254 0:255 32 0] 
r 0.123001000 _0_ RTR  --- 1190071890 diffusion 0 [0 0 0 0] ------- [0:254 0:255 32 0] 
r 0.123002000 _0_ AGT  --- 2045655601 diffusion 0 [0 0 0 0] ------- [0:255 0:254 32 0] 
s 0.172003000 _0_ AGT  --- 1190071891 diffusion 0 [0 0 0 0] ------- [0:254 0:255 32 0] 
r 0.172003000 _0_ RTR  --- 1190071891 diffusion 0 [0 0 0 0] ------- [0:254 0:255 32 0] 
r 0.172979413 _1_ RTR  --- 1190071890 diffusion 0 [0 ffffffff 0 800] ------- [0:255 -1:255 32 0] 
r 0.172980413 _1_ AGT  --- 1225933899 diffusion 0 [0 0 0 0] ------- [1:255 1:254 32 0] 
s 0.215981413 _1_ AGT  --- 528599278 diffusion 0 [0 0 0 0] ------- [1:254 1:255 32 0] 
r 0.215981413 _1_ RTR  --- 528599278 diffusion 0 [0 0 0 0] ------- [1:254 1:255 32 0] 
r 0.216897827 _0_ RTR  --- 1190071890 diffusion 0 [0 ffffffff 1 800] ------- [1:255 -1:255 32 0] 
r 0.216897961 _2_ RTR  --- 1190071890 diffusion 0 [0 ffffffff 1 800] ------- [1:255 -1:255 32 0] 
r 0.216898827 _0_ AGT  --- 2045655602 diffusion 0 [0 0 0 0] ------- [0:255 0:254 32 0] 
r 0.216898961 _2_ AGT  --- 580900445 diffusion 0 [0 0 0 0] ------- [2:255 2:254 32 0] 
s 0.261899961 _2_ AGT  --- 1566500008 diffusion 0 [0 0 0 0] ------- [2:254 2:255 32 0] 
r 0.261899961 _2_ RTR  --- 1566500008 diffusion 0 [0 0 0 0] ------- [2:254 2:255 32 0] 
r 0.262716343 _3_ RTR  --- 1190071890 diffusion 0 [0 ffffffff 2 800] ------- [2:255 -1:255 32 0] 
r 0.262716509 _1_ RTR  --- 1190071890 diffusion 0 [0 ffffffff 2 800] ------- [2:255 -1:255 32 0] 
r 0.262717343 _3_ AGT  --- 1223941496 diffusion 0 [0 0 0 0] ------- [3:255 3:254 32 0] 
r 0.262717509 _1_ AGT  --- 1225933900 diffusion 0 [0 0 0 0] ------- [1:255 1:254 32 0] 
s 0.301718343 _3_ AGT  --- 1437693524 diffusion 0 [0 0 0 0] ------- [3:254 3:255 32 0] 
r 0.301718343 _3_ RTR  --- 1437693524 diffusion 0 [0 0 0 0] ------- [3:254 3:255 32 0] 
r 0.302694725 _2_ RTR  --- 1190071890 diffusion 0 [0 ffffffff 3 800] ------- [3:255 -1:255 32 0] 
r 0.302695174 _4_ RTR  --- 1190071890 diffusion 0 [0 ffffffff 3 800] ------- [3:255 -1:255 32 0] 
r 0.302695725 _2_ AGT  --- 580900446 diffusion 0 [0 0 0 0] ------- [2:255 2:254 32 0] 
r 0.302696174 _4_ AGT  --- 611591120 diffusion 0 [0 0 0 0] ------- [4:255 4:254 32 0] 
s 0.345697174 _4_ AGT  --- 300615854 diffusion 0 [0 0 0 0] ------- [4:254 4:255 32 0] 
r 0.345697174 _4_ RTR  --- 300615854 diffusion 0 [0 0 0 0] ------- [4:254 4:255 32 0] 
r 0.346234006 _3_ RTR  --- 1190071890 diffusion 0 [0 ffffffff 4 800] ------- [4:255 -1:255 32 0] 
r 0.346235006 _3_ AGT  --- 1223941497 diffusion 0 [0 0 0 0] ------- [3:255 3:254 32 0] 
s 1.466001000 _2_ AGT  --- 1566500009 diffusion 0 [0 0 0 0] ------- [2:254 2:255 32 0] 
r 1.466001000 _2_ RTR  --- 1566500009 diffusion 0 [0 0 0 0] ------- [2:254 2:255 32 0] 
r 1.466002000 _2_ AGT  --- 580900447 diffusion 0 [0 0 0 0] ------- [2:255 2:254 32 0] 
s 5.123001000 _0_ AGT  --- 1190071892 diffusion 0 [0 0 0 0] ------- [0:254 0:255 32 0] 
r 5.123001000 _0_ RTR  --- 1190071892 diffusion 0 [0 0 0 0] ------- [0:254 0:255 32 0] 
r 5.123002000 _0_ AGT  --- 2045655603 diffusion 0 [0 0 0 0] ------- [0:255 0:254 32 0] 
s 10.123001000 _0_ AGT  --- 1190071893 diffusion 0 [0 0 0 0] ------- [0:254 0:255 32 0] 
r 10.123001000 _0_ RTR  --- 1190071893 diffusion 0 [0 0 0 0] ------- [0:254 0:255 32 0] 
r 10.123002000 _0_ AGT  --- 2045655604 diffusion 0 [0 0 0 0] ------- [0:255 0:254 32 0] 
s 15.123001000 _0_ AGT  --- 1190071894 diffusion 0 [0 0 0 0] ------- [0:254 0:255 32 0] 
r 15.123001000 _0_ RTR  --- 1190071894 diffusion 0 [0 0 0 0] ------- [0:254 0:255 32 0] 
r 15.123002000 _0_ AGT  --- 2045655605 diffusion 0 [0 0 0 0] ------- [0:255 0:254 32 0] 
s 20.000001000 _0_ AGT  --- 1190071895 diffusion 0 [0 0 0 0] ------- [0:254 0:255 32 0] 
r 20.000001000 _0_ RTR  --- 1190071895 diffusion 0 [0 0 0 0] ------- [0:254 0:255 32 0] 
s 20.000001000 _1_ AGT  --- 528599279 diffusion 0 [0 0 0 0] ------- [1:254 1:255 32 0] 
r 20.000001000 _1_ RTR  --- 528599279 diffusion 0 [0 0 0 0] ------- [1:254 1:255 32 0] 
s 20.000001000 _2_ AGT  --- 1566500010 diffusion 0 [0 0 0 0] ------- [2:254 2:255 32 0] 
r 20.000001000 _2_ RTR  --- 1566500010 diffusion 0 [0 0 0 0] ------- [2:254 2:255 32 0] 
s 20.000001000 _3_ AGT  --- 1437693525 diffusion 0 [0 0 0 0] ------- [3:254 3:255 32 0] 
r 20.000001000 _3_ RTR  --- 1437693525 diffusion 0 [0 0 0 0] ------- [3:254 3:255 32 0] 
s 20.000001000 _4_ AGT  --- 300615855 diffusion 0 [0 0 0 0] ------- [4:254 4:255 32 0] 
r 20.000001000 _4_ RTR  --- 300615855 diffusion 0 [0 0 0 0] ------- [4:254 4:255 32 0] 
s 20.123001000 _0_ AGT  --- 1190071896 diffusion 0 [0 0 0 0] ------- [0:254 0:255 32 0] 
r 20.123001000 _0_ RTR  --- 1190071896 diffusion 0 [0 0 0 0] ------- [0:254 0:255 32 0] 
r 20.123002000 _0_ AGT  --- 2045655606 diffusion 0 [0 0 0 0] ------- [0:255 0:254 32 0] 
s 25.123001000 _0_ AGT  --- 1190071897 diffusion 0 [0 0 0 0] ------- [0:254 0:255 32 0] 
r 25.123001000 _0_ RTR  --- 1190071897 diffusion 0 [0 0 0 0] ------- [0:254 0:255 32 0] 
r 25.123002000 _0_ AGT  --- 2045655607 diffusion 0 [0 0 0 0] ------- [0:255 0:254 32 0] 
s 30.123001000 _0_ AGT  --- 1190071898 diffusion 0 [0 0 0 0] ------- [0:254 0:255 32 0] 
r 30.123001000 _0_ RTR  --- 1190071898 diffusion 0 [0 0 0 0] ------- [0:254 0:255 32 0] 
r 30.123002000 _0_ AGT  --- 2045655608 diffusion 0 [0 0 0 0] ------- [0:255 0:254 32 0] 
s 35.123001000 _0_ AGT  --- 1190071899 diffusion 0 [0 0 0 0] ------- [0:254 0:255 32 0] 
r 35.123001000 _0_ RTR  --- 1190071899 diffusion 0 [0 0 0 0] ------- [0:254 0:255 32 0] 
r 35.123002000 _0_ AGT  --- 2045655609 diffusion 0 [0 0 0 0] ------- [0:255 0:254 32 0] 
s 40.000001000 _0_ AGT  --- 1190071900 diffusion 0 [0 0 0 0] ------- [0:254 0:255 32 0] 
r 40.000001000 _0_ RTR  --- 1190071900 diffusion 0 [0 0 0 0] ------- [0:254 0:255 32 0] 
s 40.000001000 _1_ AGT  --- 528599280 diffusion 0 [0 0 0 0] ------- [1:254 1:255 32 0] 
r 40.000001000 _1_ RTR  --- 528599280 diffusion 0 [0 0 0 0] ------- [1:254 1:255 32 0] 
s 40.000001000 _2_ AGT  --- 1566500011 diffusion 0 [0 0 0 0] ------- [2:254 2:255 32 0] 
r 40.000001000 _2_ RTR  --- 1566500011 diffusion 0 [0 0 0 0] ------- [2:254 2:255 32 0] 
s 40.000001000 _3_ AGT  --- 1437693526 diffusion 0 [0 0 0 0] ------- [3:254 3:255 32 0] 
r 40.000001000 _3_ RTR  --- 1437693526 diffusion 0 [0 0 0 0] ------- [3:254 3:255 32 0] 
s 40.000001000 _4_ AGT  --- 300615856 diffusion 0 [0 0 0 0] ------- [4:254 4:255 32 0] 
r 40.000001000 _4_ RTR  --- 300615856 diffusion 0 [0 0 0 0] ------- [4:254 4:255 32 0] 
s 40.123001000 _0_ AGT  --- 1190071901 diffusion 0 [0 0 0 0] ------- [0:254 0:255 32 0] 
r 40.123001000 _0_ RTR  --- 1190071901 diffusion 0 [0 0 0 0] ------- [0:254 0:255 32 0] 
r 40.123002000 _0_ AGT  --- 2045655610 diffusion 0 [0 0 0 0] ------- [0:255 0:254 32 0] 
s 45.123001000 _0_ AGT  --- 1190071902 diffusion 0 [0 0 0 0] ------- [0:254 0:255 32 0] 
r 45.123001000 _0_ RTR  --- 1190071902 diffusion 0 [0 0 0 0] ------- [0:254 0:255 32 0] 
r 45.123002000 _0_ AGT  --- 2045655611 diffusion 0 [0 0 0 0] ------- [0:255 0:254 32 0] 
s 50.123001000 _0_ AGT  --- 1190071903 diffusion 0 [0 0 0 0] ------- [0:254 0:255 32 0] 
r 50.123001000 _0_ RTR  --- 1190071903 diffusion 0 [0 0 0 0] ------- [0:254 0:255 32 0] 
r 50.123002000 _0_ AGT  --- 2045655612 diffusion 0 [0 0 0 0] ------- [0:255 0:254 32 0] 
s 55.123001000 _0_ AGT  --- 1190071904 diffusion 0 [0 0 0 0] ------- [0:254 0:255 32 0] 
r 55.123001000 _0_ RTR  --- 1190071904 diffusion 0 [0 0 0 0] ------- [0:254 0:255 32 0] 
r 55.123002000 _0_ AGT  --- 2045655613 diffusion 0 [0 0 0 0] ------- [0:255 0:254 32 0] 
s 60.000001000 _0_ AGT  --- 1190071905 diffusion 0 [0 0 0 0] ------- [0:254 0:255 32 0] 
r 60.000001000 _0_ RTR  --- 1190071905 diffusion 0 [0 0 0 0] ------- [0:254 0:255 32 0] 
s 60.000001000 _1_ AGT  --- 528599281 diffusion 0 [0 0 0 0] ------- [1:254 1:255 32 0] 
r 60.000001000 _1_ RTR  --- 528599281 diffusion 0 [0 0 0 0] ------- [1:254 1:255 32 0] 
s 60.000001000 _2_ AGT  --- 1566500012 diffusion 0 [0 0 0 0] ------- [2:254 2:255 32 0] 
r 60.000001000 _2_ RTR  --- 1566500012 diffusion 0 [0 0 0 0] ------- [2:254 2:255 32 0] 
s 60.000001000 _3_ AGT  --- 1437693527 diffusion 0 [0 0 0 0] ------- [3:254 3:255 32 0] 
r 60.000001000 _3_ RTR  --- 1437693527 diffusion 0 [0 0 0 0] ------- [3:254 3:255 32 0] 
s 60.000001000 _4_ AGT  --- 300615857 diffusion 0 [0 0 0 0] ------- [4:254 4:255 32 0] 
r 60.000001000 _4_ RTR  --- 300615857 diffusion 0 [0 0 0 0] ------- [4:254 4:255 32 0] 
s 60.123001000 _0_ AGT  --- 1190071906 diffusion 0 [0 0 0 0] ------- [0:254 0:255 32 0] 
r 60.123001000 _0_ RTR  --- 1190071906 diffusion 0 [0 0 0 0] ------- [0:254 0:255 32 0] 
r 60.123002000 _0_ AGT  --- 2045655614 diffusion 0 [0 0 0 0] ------- [0:255 0:254 32 0] 
s 60.165003000 _0_ AGT  --- 1190071907 diffusion 0 [0 0 0 0] ------- [0:254 0:255 32 0] 
r 60.165003000 _0_ RTR  --- 1190071907 diffusion 0 [0 0 0 0] ------- [0:254 0:255 32 0] 
r 60.165579413 _1_ RTR  --- 1190071906 diffusion 0 [0 ffffffff 0 800] ------- [0:255 -1:255 32 0] 
r 60.165580413 _1_ AGT  --- 1225933901 diffusion 0 [0 0 0 0] ------- [1:255 1:254 32 0] 
s 60.227581413 _1_ AGT  --- 528599282 diffusion 0 [0 0 0 0] ------- [1:254 1:255 32 0] 
r 60.227581413 _1_ RTR  --- 528599282 diffusion 0 [0 0 0 0] ------- [1:254 1:255 32 0] 
r 60.228257827 _0_ RTR  --- 1190071906 diffusion 0 [0 ffffffff 1 800] ------- [1:255 -1:255 32 0] 
r 60.228257961 _2_ RTR  --- 1190071906 diffusion 0 [0 ffffffff 1 800] ------- [1:255 -1:255 32 0] 
r 60.228258827 _0_ AGT  --- 2045655615 diffusion 0 [0 0 0 0] ------- [0:255 0:254 32 0] 
r 60.228258961 _2_ AGT  --- 580900448 diffusion 0 [0 0 0 0] ------- [2:255 2:254 32 0] 
s 60.228259961 _2_ AGT  --- 1566500013 diffusion 0 [0 0 0 0] ------- [2:254 2:255 32 0] 
r 60.228259961 _2_ RTR  --- 1566500013 diffusion 0 [0 0 0 0] ------- [2:254 2:255 32 0] 
r 60.228260961 _2_ AGT  --- 1190071906 diffusion 0 [0 0 0 0] ------- [2:255 2:254 32 0] 
s 60.279259961 _2_ AGT  --- 1566500014 diffusion 0 [0 0 0 0] ------- [2:254 2:255 32 0] 
r 60.279259961 _2_ RTR  --- 1566500014 diffusion 0 [0 0 0 0] ------- [2:254 2:255 32 0] 
r 60.280036343 _3_ RTR  --- 1190071906 diffusion 0 [0 ffffffff 2 800] ------- [2:255 -1:255 32 0] 
r 60.280036509 _1_ RTR  --- 1190071906 diffusion 0 [0 ffffffff 2 800] ------- [2:255 -1:255 32 0] 
r 60.280037343 _3_ AGT  --- 1223941498 diffusion 0 [0 0 0 0] ------- [3:255 3:254 32 0] 
r 60.280037509 _1_ AGT  --- 1225933902 diffusion 0 [0 0 0 0] ------- [1:255 1:254 32 0] 
s 60.330038343 _3_ AGT  --- 1437693528 diffusion 0 [0 0 0 0] ------- [3:254 3:255 32 0] 
r 60.330038343 _3_ RTR  --- 1437693528 diffusion 0 [0 0 0 0] ------- [3:254 3:255 32 0] 
r 60.330674725 _2_ RTR  --- 1190071906 diffusion 0 [0 ffffffff 3 800] ------- [3:255 -1:255 32 0] 
r 60.330675174 _4_ RTR  --- 1190071906 diffusion 0 [0 ffffffff 3 800] ------- [3:255 -1:255 32 0] 
r 60.330675725 _2_ AGT  --- 580900449 diffusion 0 [0 0 0 0] ------- [2:255 2:254 32 0] 
r 60.330676174 _4_ AGT  --- 611591121 diffusion 0 [0 0 0 0] ------- [4:255 4:254 32 0] 
s 60.374677174 _4_ AGT  --- 300615858 diffusion 0 [0 0 0 0] ------- [4:254 4:255 32 0] 
r 60.374677174 _4_ RTR  --- 300615858 diffusion 0 [0 0 0 0] ------- [4:254 4:255 32 0] 
r 60.375514006 _3_ RTR  --- 1190071906 diffusion 0 [0 ffffffff 4 800] ------- [4:255 -1:255 32 0] 
r 60.375515006 _3_ AGT  --- 1223941499 diffusion 0 [0 0 0 0] ------- [3:255 3:254 32 0] 
s 60.786259961 _2_ AGT  --- 1566500015 diffusion 0 [0 0 0 0] ------- [2:254 2:255 32 0] 
r 60.786259961 _2_ RTR  --- 1566500015 diffusion 0 [0 0 0 0] ------- [2:254 2:255 32 0] 
r 60.790090794 _1_ RTR  --- 1709957113 diffusion 0 [13a 1 2 800] ------- [2:255 1:255 32 1] 
r 60.790091794 _1_ AGT  --- 1225933903 diffusion 0 [0 0 0 0] ------- [1:255 1:254 32 0] 
s 60.790092794 _1_ AGT  --- 528599283 diffusion 0 [0 0 0 0] ------- [1:254 1:255 32 0] 
r 60.790092794 _1_ RTR  --- 528599283 diffusion 0 [0 0 0 0] ------- [1:254 1:255 32 0] 
r 60.795344688 _0_ RTR  --- 1709957113 diffusion 0 [13a 0 1 800] ------- [1:255 0:255 32 0] 
r 60.795345688 _0_ AGT  --- 2045655616 diffusion 0 [0 0 0 0] ------- [0:255 0:254 32 0] 
s 65.123001000 _0_ AGT  --- 1190071908 diffusion 0 [0 0 0 0] ------- [0:254 0:255 32 0] 
r 65.123001000 _0_ RTR  --- 1190071908 diffusion 0 [0 0 0 0] ------- [0:254 0:255 32 0] 
r 65.123002000 _0_ AGT  --- 2045655617 diffusion 0 [0 0 0 0] ------- [0:255 0:254 32 0] 
s 65.123003000 _0_ AGT  --- 1190071909 diffusion 0 [0 0 0 0] ------- [0:254 0:255 32 0] 
r 65.123003000 _0_ RTR  --- 1190071909 diffusion 0 [0 0 0 0] ------- [0:254 0:255 32 0] 
r 65.124736240 _1_ RTR  --- 1190071908 diffusion 0 [13a 1 0 800] ------- [0:255 1:255 32 1] 
r 65.124737240 _1_ AGT  --- 1225933904 diffusion 0 [0 0 0 0] ------- [1:255 1:254 32 0] 
s 65.124738240 _1_ AGT  --- 528599284 diffusion 0 [0 0 0 0] ------- [1:254 1:255 32 0] 
r 65.124738240 _1_ RTR  --- 528599284 diffusion 0 [0 0 0 0] ------- [1:254 1:255 32 0] 
r 65.126393883 _2_ RTR  --- 1190071908 diffusion 0 [13a 2 1 800] ------- [1:255 2:255 32 2] 
r 65.126394883 _2_ AGT  --- 580900450 diffusion 0 [0 0 0 0] ------- [2:255 2:254 32 0] 
s 65.126395883 _2_ AGT  --- 1566500016 diffusion 0 [0 0 0 0] ------- [2:254 2:255 32 0] 
r 65.126395883 _2_ RTR  --- 1566500016 diffusion 0 [0 0 0 0] ------- [2:254 2:255 32 0] 
r 65.126396883 _2_ AGT  --- 1190071908 diffusion 0 [0 0 0 0] ------- [2:255 2:254 32 0] 
s 70.123001000 _0_ AGT  --- 1190071910 diffusion 0 [0 0 0 0] ------- [0:254 0:255 32 0] 
r 70.123001000 _0_ RTR  --- 1190071910 diffusion 0 [0 0 0 0] ------- [0:254 0:255 32 0] 
r 70.123002000 _0_ AGT  --- 2045655618 diffusion 0 [0 0 0 0] ------- [0:255 0:254 32 0] 
s 70.123003000 _0_ AGT  --- 1190071911 diffusion 0 [0 0 0 0] ------- [0:254 0:255 32 0] 
r 70.123003000 _0_ RTR  --- 1190071911 diffusion 0 [0 0 0 0] ------- [0:254 0:255 32 0] 
r 70.124676240 _1_ RTR  --- 1190071910 diffusion 0 [13a 1 0 800] ------- [0:255 1:255 32 1] 
r 70.124677240 _1_ AGT  --- 1225933905 diffusion 0 [0 0 0 0] ------- [1:255 1:254 32 0] 
s 70.124678240 _1_ AGT  --- 528599285 diffusion 0 [0 0 0 0] ------- [1:254 1:255 32 0] 
r 70.124678240 _1_ RTR  --- 528599285 diffusion 0 [0 0 0 0] ------- [1:254 1:255 32 0] 
r 70.126693883 _2_ RTR  --- 1190071910 diffusion 0 [13a 2 1 800] ------- [1:255 2:255 32 2] 
r 70.126694883 _2_ AGT  --- 580900451 diffusion 0 [0 0 0 0] ------- [2:255 2:254 32 0] 
s 70.126695883 _2_ AGT  --- 1566500017 diffusion 0 [0 0 0 0] ------- [2:254 2:255 32 0] 
r 70.126695883 _2_ RTR  --- 1566500017 diffusion 0 [0 0 0 0] ------- [2:254 2:255 32 0] 
r 70.126696883 _2_ AGT  --- 1190071910 diffusion 0 [0 0 0 0] ------- [2:255 2:254 32 0] 
s 75.123001000 _0_ AGT  --- 1190071912 diffusion 0 [0 0 0 0] ------- [0:254 0:255 32 0] 
r 75.123001000 _0_ RTR  --- 1190071912 diffusion 0 [0 0 0 0] ------- [0:254 0:255 32 0] 
r 75.123002000 _0_ AGT  --- 2045655619 diffusion 0 [0 0 0 0] ------- [0:255 0:254 32 0] 
s 75.123003000 _0_ AGT  --- 1190071913 diffusion 0 [0 0 0 0] ------- [0:254 0:255 32 0] 
r 75.123003000 _0_ RTR  --- 1190071913 diffusion 0 [0 0 0 0] ------- [0:254 0:255 32 0] 
r 75.124376240 _1_ RTR  --- 1190071912 diffusion 0 [13a 1 0 800] ------- [0:255 1:255 32 1] 
r 75.124377240 _1_ AGT  --- 1225933906 diffusion 0 [0 0 0 0] ------- [1:255 1:254 32 0] 
s 75.124378240 _1_ AGT  --- 528599286 diffusion 0 [0 0 0 0] ------- [1:254 1:255 32 0] 
r 75.124378240 _1_ RTR  --- 528599286 diffusion 0 [0 0 0 0] ------- [1:254 1:255 32 0] 
r 75.125833883 _2_ RTR  --- 1190071912 diffusion 0 [13a 2 1 800] ------- [1:255 2:255 32 2] 
r 75.125834883 _2_ AGT  --- 580900452 diffusion 0 [0 0 0 0] ------- [2:255 2:254 32 0] 
s 75.125835883 _2_ AGT  --- 1566500018 diffusion 0 [0 0 0 0] ------- [2:254 2:255 32 0] 
r 75.125835883 _2_ RTR  --- 1566500018 diffusion 0 [0 0 0 0] ------- [2:254 2:255 32 0] 
r 75.125836883 _2_ AGT  --- 1190071912 diffusion 0 [0 0 0 0] ------- [2:255 2:254 32 0] 
s 80.000001000 _0_ AGT  --- 1190071914 diffusion 0 [0 0 0 0] ------- [0:254 0:255 32 0] 
r 80.000001000 _0_ RTR  --- 1190071914 diffusion 0 [0 0 0 0] ------- [0:254 0:255 32 0] 
s 80.000001000 _1_ AGT  --- 528599287 diffusion 0 [0 0 0 0] ------- [1:254 1:255 32 0] 
r 80.000001000 _1_ RTR  --- 528599287 diffusion 0 [0 0 0 0] ------- [1:254 1:255 32 0] 
s 80.000001000 _2_ AGT  --- 1566500019 diffusion 0 [0 0 0 0] ------- [2:254 2:255 32 0] 
r 80.000001000 _2_ RTR  --- 1566500019 diffusion 0 [0 0 0 0] ------- [2:254 2:255 32 0] 
s 80.000001000 _3_ AGT  --- 1437693529 diffusion 0 [0 0 0 0] ------- [3:254 3:255 32 0] 
r 80.000001000 _3_ RTR  --- 1437693529 diffusion 0 [0 0 0 0] ------- [3:254 3:255 32 0] 
s 80.000001000 _4_ AGT  --- 300615859 diffusion 0 [0 0 0 0] ------- [4:254 4:255 32 0] 
r 80.000001000 _4_ RTR  --- 300615859 diffusion 0 [0 0 0 0] ------- [4:254 4:255 32 0] 
s 80.123001000 _0_ AGT  --- 1190071915 diffusion 0 [0 0 0 0] ------- [0:254 0:255 32 0] 
r 80.123001000 _0_ RTR  --- 1190071915 diffusion 0 [0 0 0 0] ------- [0:254 0:255 32 0] 
r 80.123002000 _0_ AGT  --- 2045655620 diffusion 0 [0 0 0 0] ------- [0:255 0:254 32 0] 
s 80.123003000 _0_ AGT  --- 1190071916 diffusion 0 [0 0 0 0] ------- [0:254 0:255 32 0] 
r 80.123003000 _0_ RTR  --- 1190071916 diffusion 0 [0 0 0 0] ------- [0:254 0:255 32 0] 
r 80.124696240 _1_ RTR  --- 1190071915 diffusion 0 [13a 1 0 800] ------- [0:255 1:255 32 1] 
r 80.124697240 _1_ AGT  --- 1225933907 diffusion 0 [0 0 0 0] ------- [1:255 1:254 32 0] 
s 80.124698240 _1_ AGT  --- 528599288 diffusion 0 [0 0 0 0] ------- [1:254 1:255 32 0] 
r 80.124698240 _1_ RTR  --- 528599288 diffusion 0 [0 0 0 0] ------- [1:254 1:255 32 0] 
r 80.126253883 _2_ RTR  --- 1190071915 diffusion 0 [13a 2 1 800] ------- [1:255 2:255 32 2] 
r 80.126254883 _2_ AGT  --- 580900453 diffusion 0 [0 0 0 0] ------- [2:255 2:254 32 0] 
s 80.126255883 _2_ AGT  --- 1566500020 diffusion 0 [0 0 0 0] ------- [2:254 2:255 32 0] 
r 80.126255883 _2_ RTR  --- 1566500020 diffusion 0 [0 0 0 0] ------- [2:254 2:255 32 0] 
r 80.126256883 _2_ AGT  --- 1190071915 diffusion 0 [0 0 0 0] ------- [2:255 2:254 32 0] 
s 85.123001000 _0_ AGT  --- 1190071917 diffusion 0 [0 0 0 0] ------- [0:254 0:255 32 0] 
r 85.123001000 _0_ RTR  --- 1190071917 diffusion 0 [0 0 0 0] ------- [0:254 0:255 32 0] 
r 85.123002000 _0_ AGT  --- 2045655621 diffusion 0 [0 0 0 0] ------- [0:255 0:254 32 0] 
s 85.123003000 _0_ AGT  --- 1190071918 diffusion 0 [0 0 0 0] ------- [0:254 0:255 32 0] 
r 85.123003000 _0_ RTR  --- 1190071918 diffusion 0 [0 0 0 0] ------- [0:254 0:255 32 0] 
r 85.124656240 _1_ RTR  --- 1190071917 diffusion 0 [13a 1 0 800] ------- [0:255 1:255 32 1] 
r 85.124657240 _1_ AGT  --- 1225933908 diffusion 0 [0 0 0 0] ------- [1:255 1:254 32 0] 
s 85.124658240 _1_ AGT  --- 528599289 diffusion 0 [0 0 0 0] ------- [1:254 1:255 32 0] 
r 85.124658240 _1_ RTR  --- 528599289 diffusion 0 [0 0 0 0] ------- [1:254 1:255 32 0] 
r 85.126273883 _2_ RTR  --- 1190071917 diffusion 0 [13a 2 1 800] ------- [1:255 2:255 32 2] 
r 85.126274883 _2_ AGT  --- 580900454 diffusion 0 [0 0 0 0] ------- [2:255 2:254 32 0] 
s 85.126275883 _2_ AGT  --- 1566500021 diffusion 0 [0 0 0 0] ------- [2:254 2:255 32 0] 
r 85.126275883 _2_ RTR  --- 1566500021 diffusion 0 [0 0 0 0] ------- [2:254 2:255 32 0] 
r 85.126276883 _2_ AGT  --- 1190071917 diffusion 0 [0 0 0 0] ------- [2:255 2:254 32 0] 
s 90.123001000 _0_ AGT  --- 1190071919 diffusion 0 [0 0 0 0] ------- [0:254 0:255 32 0] 
r 90.123001000 _0_ RTR  --- 1190071919 diffusion 0 [0 0 0 0] ------- [0:254 0:255 32 0] 
r 90.123002000 _0_ AGT  --- 2045655622 diffusion 0 [0 0 0 0] ------- [0:255 0:254 32 0] 
s 90.123003000 _0_ AGT  --- 1190071920 diffusion 0 [0 0 0 0] ------- [0:254 0:255 32 0] 
r 90.123003000 _0_ RTR  --- 1190071920 diffusion 0 [0 0 0 0] ------- [0:254 0:255 32 0] 
r 90.124396240 _1_ RTR  --- 1190071919 diffusion 0 [13a 1 0 800] ------- [0:255 1:255 32 1] 
r 90.124397240 _1_ AGT  --- 1225933909 diffusion 0 [0 0 0 0] ------- [1:255 1:254 32 0] 
s 90.124398240 _1_ AGT  --- 528599290 diffusion 0 [0 0 0 0] ------- [1:254 1:255 32 0] 
r 90.124398240 _1_ RTR  --- 528599290 diffusion 0 [0 0 0 0] ------- [1:254 1:255 32 0] 
r 90.125913883 _2_ RTR  --- 1190071919 diffusion 0 [13a 2 1 800] ------- [1:255 2:255 32 2] 
r 90.125914883 _2_ AGT  --- 580900455 diffusion 0 [0 0 0 0] ------- [2:255 2:254 32 0] 
s 90.125915883 _2_ AGT  --- 1566500022 diffusion 0 [0 0 0 0] ------- [2:254 2:255 32 0] 
r 90.125915883 _2_ RTR  --- 1566500022 diffusion 0 [0 0 0 0] ------- [2:254 2:255 32 0] 
r 90.125916883 _2_ AGT  --- 1190071919 diffusion 0 [0 0 0 0] ------- [2:255 2:254 32 0] 
s 95.123001000 _0_ AGT  --- 1190071921 diffusion 0 [0 0 0 0] ------- [0:254 0:255 32 0] 
r 95.123001000 _0_ RTR  --- 1190071921 diffusion 0 [0 0 0 0] ------- [0:254 0:255 32 0] 
r 95.123002000 _0_ AGT  --- 2045655623 diffusion 0 [0 0 0 0] ------- [0:255 0:254 32 0] 
s 95.123003000 _0_ AGT  --- 1190071922 diffusion 0 [0 0 0 0] ------- [0:254 0:255 32 0] 
r 95.123003000 _0_ RTR  --- 1190071922 diffusion 0 [0 0 0 0] ------- [0:254 0:255 32 0] 
r 95.124716240 _1_ RTR  --- 1190071921 diffusion 0 [13a 1 0 800] ------- [0:255 1:255 32 1] 
r 95.124717240 _1_ AGT  --- 1225933910 diffusion 0 [0 0 0 0] ------- [1:255 1:254 32 0] 
s 95.124718240 _1_ AGT  --- 528599291 diffusion 0 [0 0 0 0] ------- [1:254 1:255 32 0] 
r 95.124718240 _1_ RTR  --- 528599291 diffusion 0 [0 0 0 0] ------- [1:254 1:255 32 0] 
r 95.126553883 _2_ RTR  --- 1190071921 diffusion 0 [13a 2 1 800] ------- [1:255 2:255 32 2] 
r 95.126554883 _2_ AGT  --- 580900456 diffusion 0 [0 0 0 0] ------- [2:255 2:254 32 0] 
s 95.126555883 _2_ AGT  --- 1566500023 diffusion 0 [0 0 0 0] ------- [2:254 2:255 32 0] 
r 95.126555883 _2_ RTR  --- 1566500023 diffusion 0 [0 0 0 0] ------- [2:254 2:255 32 0] 
r 95.126556883 _2_ AGT  --- 1190071921 diffusion 0 [0 0 0 0] ------- [2:255 2:254 32 0] 
s 100.000001000 _0_ AGT  --- 1190071923 diffusion 0 [0 0 0 0] ------- [0:254 0:255 32 0] 
r 100.000001000 _0_ RTR  --- 1190071923 diffusion 0 [0 0 0 0] ------- [0:254 0:255 32 0] 
s 100.000001000 _1_ AGT  --- 528599292 diffusion 0 [0 0 0 0] ------- [1:254 1:255 32 0] 
r 100.000001000 _1_ RTR  --- 528599292 diffusion 0 [0 0 0 0] ------- [1:254 1:255 32 0] 
s 100.000001000 _2_ AGT  --- 1566500024 diffusion 0 [0 0 0 0] ------- [2:254 2:255 32 0] 
r 100.000001000 _2_ RTR  --- 1566500024 diffusion 0 [0 0 0 0] ------- [2:254 2:255 32 0] 
s 100.000001000 _3_ AGT  --- 1437693530 diffusion 0 [0 0 0 0] ------- [3:254 3:255 32 0] 
r 100.000001000 _3_ RTR  --- 1437693530 diffusion 0 [0 0 0 0] ------- [3:254 3:255 32 0] 
s 100.000001000 _4_ AGT  --- 300615860 diffusion 0 [0 0 0 0] ------- [4:254 4:255 32 0] 
r 100.000001000 _4_ RTR  --- 300615860 diffusion 0 [0 0 0 0] ------- [4:254 4:255 32 0] 
s 100.123001000 _0_ AGT  --- 1190071924 diffusion 0 [0 0 0 0] ------- [0:254 0:255 32 0] 
r 100.123001000 _0_ RTR  --- 1190071924 diffusion 0 [0 0 0 0] ------- [0:254 0:255 32 0] 
r 100.123002000 _0_ AGT  --- 2045655624 diffusion 0 [0 0 0 0] ------- [0:255 0:254 32 0] 
s 100.123003000 _0_ AGT  --- 1190071925 diffusion 0 [0 0 0 0] ------- [0:254 0:255 32 0] 
r 100.123003000 _0_ RTR  --- 1190071925 diffusion 0 [0 0 0 0] ------- [0:254 0:255 32 0] 
r 100.124576240 _1_ RTR  --- 1190071924 diffusion 0 [13a 1 0 800] ------- [0:255 1:255 32 1] 
r 100.124577240 _1_ AGT  --- 1225933911 diffusion 0 [0 0 0 0] ------- [1:255 1:254 32 0] 
s 100.124578240 _1_ AGT  --- 528599293 diffusion 0 [0 0 0 0] ------- [1:254 1:255 32 0] 
r 100.124578240 _1_ RTR  --- 528599293 diffusion 0 [0 0 0 0] ------- [1:254 1:255 32 0] 
r 100.126093883 _2_ RTR  --- 1190071924 diffusion 0 [13a 2 1 800] ------- [1:255 2:255 32 2] 
r 100.126094883 _2_ AGT  --- 580900457 diffusion 0 [0 0 0 0] ------- [2:255 2:254 32 0] 
s 100.126095883 _2_ AGT  --- 1566500025 diffusion 0 [0 0 0 0] ------- [2:254 2:255 32 0] 
r 100.126095883 _2_ RTR  --- 1566500025 diffusion 0 [0 0 0 0] ------- [2:254 2:255 32 0] 
r 100.126096883 _2_ AGT  --- 1190071924 diffusion 0 [0 0 0 0] ------- [2:255 2:254 32 0] 
s 105.123001000 _0_ AGT  --- 1190071926 diffusion 0 [0 0 0 0] ------- [0:254 0:255 32 0] 
r 105.123001000 _0_ RTR  --- 1190071926 diffusion 0 [0 0 0 0] ------- [0:254 0:255 32 0] 
r 105.123002000 _0_ AGT  --- 2045655625 diffusion 0 [0 0 0 0] ------- [0:255 0:254 32 0] 
s 105.123003000 _0_ AGT  --- 1190071927 diffusion 0 [0 0 0 0] ------- [0:254 0:255 32 0] 
r 105.123003000 _0_ RTR  --- 1190071927 diffusion 0 [0 0 0 0] ------- [0:254 0:255 32 0] 
r 105.124416240 _1_ RTR  --- 1190071926 diffusion 0 [13a 1 0 800] ------- [0:255 1:255 32 1] 
r 105.124417240 _1_ AGT  --- 1225933912 diffusion 0 [0 0 0 0] ------- [1:255 1:254 32 0] 
s 105.124418240 _1_ AGT  --- 528599294 diffusion 0 [0 0 0 0] ------- [1:254 1:255 32 0] 
r 105.124418240 _1_ RTR  --- 528599294 diffusion 0 [0 0 0 0] ------- [1:254 1:255 32 0] 
r 105.126373883 _2_ RTR  --- 1190071926 diffusion 0 [13a 2 1 800] ------- [1:255 2:255 32 2] 
r 105.126374883 _2_ AGT  --- 580900458 diffusion 0 [0 0 0 0] ------- [2:255 2:254 32 0] 
s 105.126375883 _2_ AGT  --- 1566500026 diffusion 0 [0 0 0 0] ------- [2:254 2:255 32 0] 
r 105.126375883 _2_ RTR  --- 1566500026 diffusion 0 [0 0 0 0] ------- [2:254 2:255 32 0] 
r 105.126376883 _2_ AGT  --- 1190071926 diffusion 0 [0 0 0 0] ------- [2:255 2:254 32 0] 
s 110.123001000 _0_ AGT  --- 1190071928 diffusion 0 [0 0 0 0] ------- [0:254 0:255 32 0] 
r 110.123001000 _0_ RTR  --- 1190071928 diffusion 0 [0 0 0 0] ------- [0:254 0:255 32 0] 
r 110.123002000 _0_ AGT  --- 2045655626 diffusion 0 [0 0 0 0] ------- [0:255 0:254 32 0] 
s 110.123003000 _0_ AGT  --- 1190071929 diffusion 0 [0 0 0 0] ------- [0:254 0:255 32 0] 
r 110.123003000 _0_ RTR  --- 1190071929 diffusion 0 [0 0 0 0] ------- [0:254 0:255 32 0] 
r 110.124356240 _1_ RTR  --- 1190071928 diffusion 0 [13a 1 0 800] ------- [0:255 1:255 32 1] 
r 110.124357240 _1_ AGT  --- 1225933913 diffusion 0 [0 0 0 0] ------- [1:255 1:254 32 0] 
s 110.124358240 _1_ AGT  --- 528599295 diffusion 0 [0 0 0 0] ------- [1:254 1:255 32 0] 
r 110.124358240 _1_ RTR  --- 528599295 diffusion 0 [0 0 0 0] ------- [1:254 1:255 32 0] 
r 110.125853883 _2_ RTR  --- 1190071928 diffusion 0 [13a 2 1 800] ------- [1:255 2:255 32 2] 
r 110.125854883 _2_ AGT  --- 580900459 diffusion 0 [0 0 0 0] ------- [2:255 2:254 32 0] 
s 110.125855883 _2_ AGT  --- 1566500027 diffusion 0 [0 0 0 0] ------- [2:254 2:255 32 0] 
r 110.125855883 _2_ RTR  --- 1566500027 diffusion 0 [0 0 0 0] ------- [2:254 2:255 32 0] 
r 110.125856883 _2_ AGT  --- 1190071928 diffusion 0 [0 0 0 0] ------- [2:255 2:254 32 0] 
s 115.123001000 _0_ AGT  --- 1190071930 diffusion 0 [0 0 0 0] ------- [0:254 0:255 32 0] 
r 115.123001000 _0_ RTR  --- 1190071930 diffusion 0 [0 0 0 0] ------- [0:254 0:255 32 0] 
r 115.123002000 _0_ AGT  --- 2045655627 diffusion 0 [0 0 0 0] ------- [0:255 0:254 32 0] 
s 115.123003000 _0_ AGT  --- 1190071931 diffusion 0 [0 0 0 0] ------- [0:254 0:255 32 0] 
r 115.123003000 _0_ RTR  --- 1190071931 diffusion 0 [0 0 0 0] ------- [0:254 0:255 32 0] 
r 115.124236240 _1_ RTR  --- 1190071930 diffusion 0 [13a 1 0 800] ------- [0:255 1:255 32 1] 
r 115.124237240 _1_ AGT  --- 1225933914 diffusion 0 [0 0 0 0] ------- [1:255 1:254 32 0] 
s 115.124238240 _1_ AGT  --- 528599296 diffusion 0 [0 0 0 0] ------- [1:254 1:255 32 0] 
r 115.124238240 _1_ RTR  --- 528599296 diffusion 0 [0 0 0 0] ------- [1:254 1:255 32 0] 
r 115.125993883 _2_ RTR  --- 1190071930 diffusion 0 [13a 2 1 800] ------- [1:255 2:255 32 2] 
r 115.125994883 _2_ AGT  --- 580900460 diffusion 0 [0 0 0 0] ------- [2:255 2:254 32 0] 
s 115.125995883 _2_ AGT  --- 1566500028 diffusion 0 [0 0 0 0] ------- [2:254 2:255 32 0] 
r 115.125995883 _2_ RTR  --- 1566500028 diffusion 0 [0 0 0 0] ------- [2:254 2:255 32 0] 
r 115.125996883 _2_ AGT  --- 1190071930 diffusion 0 [0 0 0 0] ------- [2:255 2:254 32 0] 
s 120.000001000 _0_ AGT  --- 1190071932 diffusion 0 [0 0 0 0] ------- [0:254 0:255 32 0] 
r 120.000001000 _0_ RTR  --- 1190071932 diffusion 0 [0 0 0 0] ------- [0:254 0:255 32 0] 
s 120.000001000 _1_ AGT  --- 528599297 diffusion 0 [0 0 0 0] ------- [1:254 1:255 32 0] 
r 120.000001000 _1_ RTR  --- 528599297 diffusion 0 [0 0 0 0] ------- [1:254 1:255 32 0] 
s 120.000001000 _2_ AGT  --- 1566500029 diffusion 0 [0 0 0 0] ------- [2:254 2:255 32 0] 
r 120.000001000 _2_ RTR  --- 1566500029 diffusion 0 [0 0 0 0] ------- [2:254 2:255 32 0] 
s 120.000001000 _3_ AGT  --- 1437693531 diffusion 0 [0 0 0 0] ------- [3:254 3:255 32 0] 
r 120.000001000 _3_ RTR  --- 1437693531 diffusion 0 [0 0 0 0] ------- [3:254 3:255 32 0] 
s 120.000001000 _4_ AGT  --- 300615861 diffusion 0 [0 0 0 0] ------- [4:254 4:255 32 0] 
r 120.000001000 _4_ RTR  --- 300615861 diffusion 0 [0 0 0 0] ------- [4:254 4:255 32 0] 
s 120.123001000 _0_ AGT  --- 1190071933 diffusion 0 [0 0 0 0] ------- [0:254 0:255 32 0] 
r 120.123001000 _0_ RTR  --- 1190071933 diffusion 0 [0 0 0 0] ------- [0:254 0:255 32 0] 
r 120.123002000 _0_ AGT  --- 2045655628 diffusion 0 [0 0 0 0] ------- [0:255 0:254 32 0] 
s 120.162003000 _0_ AGT  --- 1190071934 diffusion 0 [0 0 0 0] ------- [0:254 0:255 32 0] 
r 120.162003000 _0_ RTR  --- 1190071934 diffusion 0 [0 0 0 0] ------- [0:254 0:255 32 0] 