s 0.000001000 _0_ AGT  --- 1190071889 diffusion 0 [0 0 0 0] ------- [0:254 0:255 32 0] 
s 0.000001000 _1_ AGT  --- 528599277 diffusion 0 [0 0 0 0] ------- [1:254 1:255 32 0] 
s 0.000001000 _2_ AGT  --- 1566500007 diffusion 0 [0 0 0 0] ------- [2:254 2:255 32 0] 
s 0.000001000 _3_ AGT  --- 1437693523 diffusion 0 [0 0 0 0] ------- [3:254 3:255 32 0] 
s 0.000001000 _4_ AGT  --- 300615853 diffusion 0 [0 0 0 0] ------- [4:254 4:255 32 0] 
s 0.000001000 _5_ AGT  --- 905258839 diffusion 0 [0 0 0 0] ------- [5:254 5:255 32 0] 
s 0.000001000 _6_ AGT  --- 1811076627 diffusion 0 [0 0 0 0] ------- [6:254 6:255 32 0] 
s 0.000001000 _7_ AGT  --- 1732828135 diffusion 0 [0 0 0 0] ------- [7:254 7:255 32 0] 
s 0.000001000 _8_ AGT  --- 379185994 diffusion 0 [0 0 0 0] ------- [8:254 8:255 32 0] 
s 0.000001000 _9_ AGT  --- 1003364341 diffusion 0 [0 0 0 0] ------- [9:254 9:255 32 0] 
s 0.123001000 _2_ AGT  --- 1566500008 diffusion 0 [0 0 0 0] ------- [2:254 2:255 32 0] 
r 0.123002000 _2_ AGT  --- 580900445 diffusion 0 [0 0 0 0] ------- [2:255 2:254 32 0] 
s 0.170003000 _2_ AGT  --- 1566500009 diffusion 0 [0 0 0 0] ------- [2:254 2:255 32 0] 
r 0.170936328 _9_ AGT  --- 495722036 diffusion 0 [0 0 0 0] ------- [9:255 9:254 32 0] 
r 0.170936452 _3_ AGT  --- 1223941496 diffusion 0 [0 0 0 0] ------- [3:255 3:254 32 0] 
r 0.170936557 _7_ AGT  --- 394266824 diffusion 0 [0 0 0 0] ------- [7:255 7:254 32 0] 
r 0.170936590 _4_ AGT  --- 611591120 diffusion 0 [0 0 0 0] ------- [4:255 4:254 32 0] 
r 0.170936710 _1_ AGT  --- 1225933899 diffusion 0 [0 0 0 0] ------- [1:255 1:254 32 0] 
s 0.215937328 _9_ AGT  --- 1003364342 diffusion 0 [0 0 0 0] ------- [9:254 9:255 32 0] 
s 0.215937557 _7_ AGT  --- 1732828136 diffusion 0 [0 0 0 0] ------- [7:254 7:255 32 0] 
r 0.216590656 _2_ AGT  --- 580900446 diffusion 0 [0 0 0 0] ------- [2:255 2:254 32 0] 
r 0.216590670 _3_ AGT  --- 1223941497 diffusion 0 [0 0 0 0] ------- [3:255 3:254 32 0] 
r 0.216590754 _7_ AGT  --- 394266825 diffusion 0 [0 0 0 0] ------- [7:255 7:254 32 0] 
r 0.216590864 _4_ AGT  --- 611591121 diffusion 0 [0 0 0 0] ------- [4:255 4:254 32 0] 
r 0.218013180 _9_ AGT  --- 495722037 diffusion 0 [0 0 0 0] ------- [9:255 9:254 32 0] 
r 0.218013311 _2_ AGT  --- 580900447 diffusion 0 [0 0 0 0] ------- [2:255 2:254 32 0] 
r 0.218013522 _3_ AGT  --- 1223941498 diffusion 0 [0 0 0 0] ------- [3:255 3:254 32 0] 
s 0.221937452 _3_ AGT  --- 1437693524 diffusion 0 [0 0 0 0] ------- [3:254 3:255 32 0] 
r 0.223010647 _4_ AGT  --- 611591122 diffusion 0 [0 0 0 0] ------- [4:255 4:254 32 0] 
r 0.223010795 _9_ AGT  --- 495722038 diffusion 0 [0 0 0 0] ------- [9:255 9:254 32 0] 
r 0.223010905 _2_ AGT  --- 580900448 diffusion 0 [0 0 0 0] ------- [2:255 2:254 32 0] 
r 0.223011051 _1_ AGT  --- 1225933900 diffusion 0 [0 0 0 0] ------- [1:255 1:254 32 0] 
r 0.223011220 _7_ AGT  --- 394266826 diffusion 0 [0 0 0 0] ------- [7:255 7:254 32 0] 
r 0.223011269 _6_ AGT  --- 557533818 diffusion 0 [0 0 0 0] ------- [6:255 6:254 32 0] 
s 0.223937710 _1_ AGT  --- 528599278 diffusion 0 [0 0 0 0] ------- [1:254 1:255 32 0] 
r 0.225031187 _4_ AGT  --- 611591123 diffusion 0 [0 0 0 0] ------- [4:255 4:254 32 0] 
r 0.225031309 _3_ AGT  --- 1223941499 diffusion 0 [0 0 0 0] ------- [3:255 3:254 32 0] 
r 0.225031420 _2_ AGT  --- 580900449 diffusion 0 [0 0 0 0] ------- [2:255 2:254 32 0] 
s 0.229937590 _4_ AGT  --- 300615854 diffusion 0 [0 0 0 0] ------- [4:254 4:255 32 0] 
r 0.231030784 _3_ AGT  --- 1223941500 diffusion 0 [0 0 0 0] ------- [3:255 3:254 32 0] 
r 0.231031067 _1_ AGT  --- 1225933901 diffusion 0 [0 0 0 0] ------- [1:255 1:254 32 0] 
r 0.231031126 _9_ AGT  --- 495722039 diffusion 0 [0 0 0 0] ------- [9:255 9:254 32 0] 
r 0.231031180 _2_ AGT  --- 580900450 diffusion 0 [0 0 0 0] ------- [2:255 2:254 32 0] 
r 0.231031394 _6_ AGT  --- 557533819 diffusion 0 [0 0 0 0] ------- [6:255 6:254 32 0] 
s 0.263012269 _6_ AGT  --- 1811076628 diffusion 0 [0 0 0 0] ------- [6:254 6:255 32 0] 
r 0.263545416 _8_ AGT  --- 1180591529 diffusion 0 [0 0 0 0] ------- [8:255 8:254 32 0] 
r 0.263545709 _0_ AGT  --- 2045655601 diffusion 0 [0 0 0 0] ------- [0:255 0:254 32 0] 
r 0.263545913 _5_ AGT  --- 885480288 diffusion 0 [0 0 0 0] ------- [5:255 5:254 32 0] 
r 0.263546073 _4_ AGT  --- 611591124 diffusion 0 [0 0 0 0] ------- [4:255 4:254 32 0] 
r 0.263546085 _3_ AGT  --- 1223941501 diffusion 0 [0 0 0 0] ------- [3:255 3:254 32 0] 
s 0.313546709 _0_ AGT  --- 1190071890 diffusion 0 [0 0 0 0] ------- [0:254 0:255 32 0] 
s 0.313546913 _5_ AGT  --- 905258840 diffusion 0 [0 0 0 0] ------- [5:254 5:255 32 0] 
r 0.314180558 _6_ AGT  --- 557533820 diffusion 0 [0 0 0 0] ------- [6:255 6:254 32 0] 
r 0.314180637 _8_ AGT  --- 1180591530 diffusion 0 [0 0 0 0] ------- [8:255 8:254 32 0] 
r 0.315843268 _8_ AGT  --- 1180591531 diffusion 0 [0 0 0 0] ------- [8:255 8:254 32 0] 
r 0.315843391 _6_ AGT  --- 557533821 diffusion 0 [0 0 0 0] ------- [6:255 6:254 32 0] 
s 0.323546416 _8_ AGT  --- 379185995 diffusion 0 [0 0 0 0] ------- [8:254 8:255 32 0] 
r 0.324239564 _6_ AGT  --- 557533822 diffusion 0 [0 0 0 0] ------- [6:255 6:254 32 0] 
r 0.324239734 _0_ AGT  --- 2045655602 diffusion 0 [0 0 0 0] ------- [0:255 0:254 32 0] 
r 0.324240140 _5_ AGT  --- 885480289 diffusion 0 [0 0 0 0] ------- [5:255 5:254 32 0] 
s 1.110001000 _9_ AGT  --- 1003364343 diffusion 0 [0 0 0 0] ------- [9:254 9:255 32 0] 
r 1.110002000 _9_ AGT  --- 495722040 diffusion 0 [0 0 0 0] ------- [9:255 9:254 32 0] 
s 2.210001000 _8_ AGT  --- 379185996 diffusion 0 [0 0 0 0] ------- [8:254 8:255 32 0] 
r 2.210002000 _8_ AGT  --- 1180591532 diffusion 0 [0 0 0 0] ------- [8:255 8:254 32 0] 
s 3.310001000 _7_ AGT  --- 1732828137 diffusion 0 [0 0 0 0] ------- [7:254 7:255 32 0] 
r 3.310002000 _7_ AGT  --- 394266827 diffusion 0 [0 0 0 0] ------- [7:255 7:254 32 0] 
s 4.410001000 _6_ AGT  --- 1811076629 diffusion 0 [0 0 0 0] ------- [6:254 6:255 32 0] 
r 4.410002000 _6_ AGT  --- 557533823 diffusion 0 [0 0 0 0] ------- [6:255 6:254 32 0] 
s 5.123001000 _2_ AGT  --- 1566500010 diffusion 0 [0 0 0 0] ------- [2:254 2:255 32 0] 
r 5.123002000 _2_ AGT  --- 580900451 diffusion 0 [0 0 0 0] ------- [2:255 2:254 32 0] 
s 10.123001000 _2_ AGT  --- 1566500011 diffusion 0 [0 0 0 0] ------- [2:254 2:255 32 0] 
r 10.123002000 _2_ AGT  --- 580900452 diffusion 0 [0 0 0 0] ------- [2:255 2:254 32 0] 
s 15.123001000 _2_ AGT  --- 1566500012 diffusion 0 [0 0 0 0] ------- [2:254 2:255 32 0] 
r 15.123002000 _2_ AGT  --- 580900453 diffusion 0 [0 0 0 0] ------- [2:255 2:254 32 0] 
s 20.000001000 _0_ AGT  --- 1190071891 diffusion 0 [0 0 0 0] ------- [0:254 0:255 32 0] 
s 20.000001000 _1_ AGT  --- 528599279 diffusion 0 [0 0 0 0] ------- [1:254 1:255 32 0] 
s 20.000001000 _2_ AGT  --- 1566500013 diffusion 0 [0 0 0 0] ------- [2:254 2:255 32 0] 
s 20.000001000 _3_ AGT  --- 1437693525 diffusion 0 [0 0 0 0] ------- [3:254 3:255 32 0] 
s 20.000001000 _4_ AGT  --- 300615855 diffusion 0 [0 0 0 0] ------- [4:254 4:255 32 0] 
s 20.000001000 _5_ AGT  --- 905258841 diffusion 0 [0 0 0 0] ------- [5:254 5:255 32 0] 
s 20.000001000 _6_ AGT  --- 1811076630 diffusion 0 [0 0 0 0] ------- [6:254 6:255 32 0] 
s 20.000001000 _7_ AGT  --- 1732828138 diffusion 0 [0 0 0 0] ------- [7:254 7:255 32 0] 
s 20.000001000 _8_ AGT  --- 379185997 diffusion 0 [0 0 0 0] ------- [8:254 8:255 32 0] 
s 20.000001000 _9_ AGT  --- 1003364344 diffusion 0 [0 0 0 0] ------- [9:254 9:255 32 0] 
s 20.123001000 _2_ AGT  --- 1566500014 diffusion 0 [0 0 0 0] ------- [2:254 2:255 32 0] 
r 20.123002000 _2_ AGT  --- 580900454 diffusion 0 [0 0 0 0] ------- [2:255 2:254 32 0] 
s 22.832001000 _6_ AGT  --- 1811076631 diffusion 0 [0 0 0 0] ------- [6:254 6:255 32 0] 
r 22.832002000 _6_ AGT  --- 557533824 diffusion 0 [0 0 0 0] ------- [6:255 6:254 32 0] 
s 25.123001000 _2_ AGT  --- 1566500015 diffusion 0 [0 0 0 0] ------- [2:254 2:255 32 0] 
r 25.123002000 _2_ AGT  --- 580900455 diffusion 0 [0 0 0 0] ------- [2:255 2:254 32 0] 
s 30.123001000 _2_ AGT  --- 1566500016 diffusion 0 [0 0 0 0] ------- [2:254 2:255 32 0] 
r 30.123002000 _2_ AGT  --- 580900456 diffusion 0 [0 0 0 0] ------- [2:255 2:254 32 0] 
s 32.658001000 _9_ AGT  --- 1003364345 diffusion 0 [0 0 0 0] ------- [9:254 9:255 32 0] 
r 32.658002000 _9_ AGT  --- 495722041 diffusion 0 [0 0 0 0] ------- [9:255 9:254 32 0] 
s 35.123001000 _2_ AGT  --- 1566500017 diffusion 0 [0 0 0 0] ------- [2:254 2:255 32 0] 
r 35.123002000 _2_ AGT  --- 580900457 diffusion 0 [0 0 0 0] ------- [2:255 2:254 32 0] 
s 38.358001000 _6_ AGT  --- 1811076632 diffusion 0 [0 0 0 0] ------- [6:254 6:255 32 0] 
r 38.358002000 _6_ AGT  --- 557533825 diffusion 0 [0 0 0 0] ------- [6:255 6:254 32 0] 
s 40.000001000 _0_ AGT  --- 1190071892 diffusion 0 [0 0 0 0] ------- [0:254 0:255 32 0] 
s 40.000001000 _1_ AGT  --- 528599280 diffusion 0 [0 0 0 0] ------- [1:254 1:255 32 0] 
s 40.000001000 _2_ AGT  --- 1566500018 diffusion 0 [0 0 0 0] ------- [2:254 2:255 32 0] 
s 40.000001000 _3_ AGT  --- 1437693526 diffusion 0 [0 0 0 0] ------- [3:254 3:255 32 0] 
s 40.000001000 _4_ AGT  --- 300615856 diffusion 0 [0 0 0 0] ------- [4:254 4:255 32 0] 
s 40.000001000 _5_ AGT  --- 905258842 diffusion 0 [0 0 0 0] ------- [5:254 5:255 32 0] 
s 40.000001000 _6_ AGT  --- 1811076633 diffusion 0 [0 0 0 0] ------- [6:254 6:255 32 0] 
s 40.000001000 _7_ AGT  --- 1732828139 diffusion 0 [0 0 0 0] ------- [7:254 7:255 32 0] 
s 40.000001000 _8_ AGT  --- 379185998 diffusion 0 [0 0 0 0] ------- [8:254 8:255 32 0] 
s 40.000001000 _9_ AGT  --- 1003364346 diffusion 0 [0 0 0 0] ------- [9:254 9:255 32 0] 
s 40.123001000 _2_ AGT  --- 1566500019 diffusion 0 [0 0 0 0] ------- [2:254 2:255 32 0] 
r 40.123002000 _2_ AGT  --- 580900458 diffusion 0 [0 0 0 0] ------- [2:255 2:254 32 0] 
s 43.549001000 _9_ AGT  --- 1003364347 diffusion 0 [0 0 0 0] ------- [9:254 9:255 32 0] 
r 43.549002000 _9_ AGT  --- 495722042 diffusion 0 [0 0 0 0] ------- [9:255 9:254 32 0] 
s 45.123001000 _2_ AGT  --- 1566500020 diffusion 0 [0 0 0 0] ------- [2:254 2:255 32 0] 
r 45.123002000 _2_ AGT  --- 580900459 diffusion 0 [0 0 0 0] ------- [2:255 2:254 32 0] 
s 46.507001000 _7_ AGT  --- 1732828140 diffusion 0 [0 0 0 0] ------- [7:254 7:255 32 0] 
r 46.507002000 _7_ AGT  --- 394266828 diffusion 0 [0 0 0 0] ------- [7:255 7:254 32 0] 
s 49.658001000 _9_ AGT  --- 1003364348 diffusion 0 [0 0 0 0] ------- [9:254 9:255 32 0] 
r 49.658002000 _9_ AGT  --- 495722043 diffusion 0 [0 0 0 0] ------- [9:255 9:254 32 0] 
s 50.123001000 _2_ AGT  --- 1566500021 diffusion 0 [0 0 0 0] ------- [2:254 2:255 32 0] 
r 50.123002000 _2_ AGT  --- 580900460 diffusion 0 [0 0 0 0] ------- [2:255 2:254 32 0] 
s 55.123001000 _2_ AGT  --- 1566500022 diffusion 0 [0 0 0 0] ------- [2:254 2:255 32 0] 
r 55.123002000 _2_ AGT  --- 580900461 diffusion 0 [0 0 0 0] ------- [2:255 2:254 32 0] 
s 55.724001000 _6_ AGT  --- 1811076634 diffusion 0 [0 0 0 0] ------- [6:254 6:255 32 0] 
r 55.724002000 _6_ AGT  --- 557533826 diffusion 0 [0 0 0 0] ------- [6:255 6:254 32 0] 
s 59.431001000 _8_ AGT  --- 379185999 diffusion 0 [0 0 0 0] ------- [8:254 8:255 32 0] 
r 59.431002000 _8_ AGT  --- 1180591533 diffusion 0 [0 0 0 0] ------- [8:255 8:254 32 0] 
s 59.558001000 _7_ AGT  --- 1732828141 diffusion 0 [0 0 0 0] ------- [7:254 7:255 32 0] 
r 59.558002000 _7_ AGT  --- 394266829 diffusion 0 [0 0 0 0] ------- [7:255 7:254 32 0] 
s 60.000001000 _0_ AGT  --- 1190071893 diffusion 0 [0 0 0 0] ------- [0:254 0:255 32 0] 
s 60.000001000 _1_ AGT  --- 528599281 diffusion 0 [0 0 0 0] ------- [1:254 1:255 32 0] 
s 60.000001000 _2_ AGT  --- 1566500023 diffusion 0 [0 0 0 0] ------- [2:254 2:255 32 0] 
s 60.000001000 _3_ AGT  --- 1437693527 diffusion 0 [0 0 0 0] ------- [3:254 3:255 32 0] 
s 60.000001000 _4_ AGT  --- 300615857 diffusion 0 [0 0 0 0] ------- [4:254 4:255 32 0] 
s 60.000001000 _5_ AGT  --- 905258843 diffusion 0 [0 0 0 0] ------- [5:254 5:255 32 0] 
s 60.000001000 _6_ AGT  --- 1811076635 diffusion 0 [0 0 0 0] ------- [6:254 6:255 32 0] 
s 60.000001000 _7_ AGT  --- 1732828142 diffusion 0 [0 0 0 0] ------- [7:254 7:255 32 0] 
s 60.000001000 _8_ AGT  --- 379186000 diffusion 0 [0 0 0 0] ------- [8:254 8:255 32 0] 
s 60.000001000 _9_ AGT  --- 1003364349 diffusion 0 [0 0 0 0] ------- [9:254 9:255 32 0] 
s 60.123001000 _2_ AGT  --- 1566500024 diffusion 0 [0 0 0 0] ------- [2:254 2:255 32 0] 
r 60.123002000 _2_ AGT  --- 580900462 diffusion 0 [0 0 0 0] ------- [2:255 2:254 32 0] 
s 60.177003000 _2_ AGT  --- 1566500025 diffusion 0 [0 0 0 0] ------- [2:254 2:255 32 0] 
r 60.178036328 _9_ AGT  --- 495722044 diffusion 0 [0 0 0 0] ------- [9:255 9:254 32 0] 
r 60.178036452 _3_ AGT  --- 1223941502 diffusion 0 [0 0 0 0] ------- [3:255 3:254 32 0] 
r 60.178036557 _7_ AGT  --- 394266830 diffusion 0 [0 0 0 0] ------- [7:255 7:254 32 0] 
r 60.178036590 _4_ AGT  --- 611591125 diffusion 0 [0 0 0 0] ------- [4:255 4:254 32 0] 
r 60.178036710 _1_ AGT  --- 1225933902 diffusion 0 [0 0 0 0] ------- [1:255 1:254 32 0] 
s 60.178037328 _9_ AGT  --- 1003364350 diffusion 0 [0 0 0 0] ------- [9:254 9:255 32 0] 
s 60.178037557 _7_ AGT  --- 1732828143 diffusion 0 [0 0 0 0] ------- [7:254 7:255 32 0] 
r 60.178038328 _9_ AGT  --- 1566500024 diffusion 0 [0 0 0 0] ------- [9:255 9:254 32 0] 
r 60.178038557 _7_ AGT  --- 1566500024 diffusion 0 [0 0 0 0] ------- [7:255 7:254 32 0] 
s 60.222037557 _7_ AGT  --- 1732828144 diffusion 0 [0 0 0 0] ------- [7:254 7:255 32 0] 
r 60.222710983 _9_ AGT  --- 495722045 diffusion 0 [0 0 0 0] ------- [9:255 9:254 32 0] 
r 60.222711114 _2_ AGT  --- 580900463 diffusion 0 [0 0 0 0] ------- [2:255 2:254 32 0] 
r 60.222711325 _3_ AGT  --- 1223941503 diffusion 0 [0 0 0 0] ------- [3:255 3:254 32 0] 
s 60.228037710 _1_ AGT  --- 528599282 diffusion 0 [0 0 0 0] ------- [1:254 1:255 32 0] 
r 60.228951187 _4_ AGT  --- 611591126 diffusion 0 [0 0 0 0] ------- [4:255 4:254 32 0] 
r 60.228951309 _3_ AGT  --- 1223941504 diffusion 0 [0 0 0 0] ------- [3:255 3:254 32 0] 
r 60.228951420 _2_ AGT  --- 580900464 diffusion 0 [0 0 0 0] ------- [2:255 2:254 32 0] 
s 60.235037452 _3_ AGT  --- 1437693528 diffusion 0 [0 0 0 0] ------- [3:254 3:255 32 0] 
r 60.235630647 _4_ AGT  --- 611591127 diffusion 0 [0 0 0 0] ------- [4:255 4:254 32 0] 
r 60.235630795 _9_ AGT  --- 495722046 diffusion 0 [0 0 0 0] ------- [9:255 9:254 32 0] 
r 60.235630905 _2_ AGT  --- 580900465 diffusion 0 [0 0 0 0] ------- [2:255 2:254 32 0] 
r 60.235631051 _1_ AGT  --- 1225933903 diffusion 0 [0 0 0 0] ------- [1:255 1:254 32 0] 
r 60.235631220 _7_ AGT  --- 394266831 diffusion 0 [0 0 0 0] ------- [7:255 7:254 32 0] 
r 60.235631269 _6_ AGT  --- 557533827 diffusion 0 [0 0 0 0] ------- [6:255 6:254 32 0] 
s 60.235632269 _6_ AGT  --- 1811076636 diffusion 0 [0 0 0 0] ------- [6:254 6:255 32 0] 
r 60.235633269 _6_ AGT  --- 1566500024 diffusion 0 [0 0 0 0] ------- [6:255 6:254 32 0] 
s 60.237037328 _9_ AGT  --- 1003364351 diffusion 0 [0 0 0 0] ------- [9:254 9:255 32 0] 
r 60.237750656 _2_ AGT  --- 580900466 diffusion 0 [0 0 0 0] ------- [2:255 2:254 32 0] 
r 60.237750670 _3_ AGT  --- 1223941505 diffusion 0 [0 0 0 0] ------- [3:255 3:254 32 0] 
r 60.237750754 _7_ AGT  --- 394266832 diffusion 0 [0 0 0 0] ------- [7:255 7:254 32 0] 
r 60.237750864 _4_ AGT  --- 611591128 diffusion 0 [0 0 0 0] ------- [4:255 4:254 32 0] 
s 60.240037590 _4_ AGT  --- 300615858 diffusion 0 [0 0 0 0] ------- [4:254 4:255 32 0] 
r 60.240770784 _3_ AGT  --- 1223941506 diffusion 0 [0 0 0 0] ------- [3:255 3:254 32 0] 
r 60.240771067 _1_ AGT  --- 1225933904 diffusion 0 [0 0 0 0] ------- [1:255 1:254 32 0] 
r 60.240771126 _9_ AGT  --- 495722047 diffusion 0 [0 0 0 0] ------- [9:255 9:254 32 0] 
r 60.240771180 _2_ AGT  --- 580900467 diffusion 0 [0 0 0 0] ------- [2:255 2:254 32 0] 
r 60.240771394 _6_ AGT  --- 557533828 diffusion 0 [0 0 0 0] ------- [6:255 6:254 32 0] 
s 60.293632269 _6_ AGT  --- 1811076637 diffusion 0 [0 0 0 0] ------- [6:254 6:255 32 0] 
r 60.294665416 _8_ AGT  --- 1180591534 diffusion 0 [0 0 0 0] ------- [8:255 8:254 32 0] 
r 60.294665709 _0_ AGT  --- 2045655603 diffusion 0 [0 0 0 0] ------- [0:255 0:254 32 0] 
r 60.294665913 _5_ AGT  --- 885480290 diffusion 0 [0 0 0 0] ------- [5:255 5:254 32 0] 
r 60.294666073 _4_ AGT  --- 611591129 diffusion 0 [0 0 0 0] ------- [4:255 4:254 32 0] 
r 60.294666085 _3_ AGT  --- 1223941507 diffusion 0 [0 0 0 0] ------- [3:255 3:254 32 0] 
s 60.294666416 _8_ AGT  --- 379186001 diffusion 0 [0 0 0 0] ------- [8:254 8:255 32 0] 
r 60.294667416 _8_ AGT  --- 1566500024 diffusion 0 [0 0 0 0] ------- [8:255 8:254 32 0] 
s 60.342666709 _0_ AGT  --- 1190071894 diffusion 0 [0 0 0 0] ------- [0:254 0:255 32 0] 
r 60.343420027 _8_ AGT  --- 1180591535 diffusion 0 [0 0 0 0] ------- [8:255 8:254 32 0] 
r 60.343420149 _6_ AGT  --- 557533829 diffusion 0 [0 0 0 0] ------- [6:255 6:254 32 0] 
s 60.343666913 _5_ AGT  --- 905258844 diffusion 0 [0 0 0 0] ------- [5:254 5:255 32 0] 
r 60.344523391 _6_ AGT  --- 557533830 diffusion 0 [0 0 0 0] ------- [6:255 6:254 32 0] 
r 60.344523470 _8_ AGT  --- 1180591536 diffusion 0 [0 0 0 0] ------- [8:255 8:254 32 0] 
s 60.344666416 _8_ AGT  --- 379186002 diffusion 0 [0 0 0 0] ------- [8:254 8:255 32 0] 
r 60.345219564 _6_ AGT  --- 557533831 diffusion 0 [0 0 0 0] ------- [6:255 6:254 32 0] 
r 60.345219734 _0_ AGT  --- 2045655604 diffusion 0 [0 0 0 0] ------- [0:255 0:254 32 0] 
r 60.345220140 _5_ AGT  --- 885480291 diffusion 0 [0 0 0 0] ------- [5:255 5:254 32 0] 
s 60.691037328 _9_ AGT  --- 1003364352 diffusion 0 [0 0 0 0] ------- [9:254 9:255 32 0] 
r 60.695115624 _2_ AGT  --- 580900468 diffusion 0 [0 0 0 0] ------- [2:255 2:254 32 0] 
s 60.803632269 _6_ AGT  --- 1811076638 diffusion 0 [0 0 0 0] ------- [6:254 6:255 32 0] 
r 60.808473983 _3_ AGT  --- 1223941508 diffusion 0 [0 0 0 0] ------- [3:255 3:254 32 0] 
s 60.808474983 _3_ AGT  --- 1437693529 diffusion 0 [0 0 0 0] ------- [3:254 3:255 32 0] 
r 60.813572149 _2_ AGT  --- 580900469 diffusion 0 [0 0 0 0] ------- [2:255 2:254 32 0] 
s 60.835037557 _7_ AGT  --- 1732828145 diffusion 0 [0 0 0 0] ------- [7:254 7:255 32 0] 
r 60.839697457 _2_ AGT  --- 580900470 diffusion 0 [0 0 0 0] ------- [2:255 2:254 32 0] 
s 60.955666416 _8_ AGT  --- 379186003 diffusion 0 [0 0 0 0] ------- [8:254 8:255 32 0] 
r 60.957007860 _6_ AGT  --- 557533832 diffusion 0 [0 0 0 0] ------- [6:255 6:254 32 0] 
s 60.957008860 _6_ AGT  --- 1811076639 diffusion 0 [0 0 0 0] ------- [6:254 6:255 32 0] 
r 60.959090309 _3_ AGT  --- 1223941509 diffusion 0 [0 0 0 0] ------- [3:255 3:254 32 0] 
s 60.959091309 _3_ AGT  --- 1437693530 diffusion 0 [0 0 0 0] ------- [3:254 3:255 32 0] 
r 60.961071666 _2_ AGT  --- 580900471 diffusion 0 [0 0 0 0] ------- [2:255 2:254 32 0] 
s 65.123001000 _2_ AGT  --- 1566500026 diffusion 0 [0 0 0 0] ------- [2:254 2:255 32 0] 
r 65.123002000 _2_ AGT  --- 580900472 diffusion 0 [0 0 0 0] ------- [2:255 2:254 32 0] 
s 65.123003000 _2_ AGT  --- 1566500027 diffusion 0 [0 0 0 0] ------- [2:254 2:255 32 0] 
s 65.123003000 _2_ AGT  --- 1566500028 diffusion 0 [0 0 0 0] ------- [2:254 2:255 32 0] 
s 65.123003000 _2_ AGT  --- 1566500029 diffusion 0 [0 0 0 0] ------- [2:254 2:255 32 0] 
r 65.124764984 _9_ AGT  --- 495722048 diffusion 0 [0 0 0 0] ------- [9:255 9:254 32 0] 
s 65.124765984 _9_ AGT  --- 1003364353 diffusion 0 [0 0 0 0] ------- [9:254 9:255 32 0] 
r 65.124766984 _9_ AGT  --- 1566500026 diffusion 0 [0 0 0 0] ------- [9:255 9:254 32 0] 
r 65.126446669 _3_ AGT  --- 1223941510 diffusion 0 [0 0 0 0] ------- [3:255 3:254 32 0] 
s 65.126447669 _3_ AGT  --- 1437693531 diffusion 0 [0 0 0 0] ------- [3:254 3:255 32 0] 
r 65.128148793 _7_ AGT  --- 394266833 diffusion 0 [0 0 0 0] ------- [7:255 7:254 32 0] 
s 65.128149793 _7_ AGT  --- 1732828146 diffusion 0 [0 0 0 0] ------- [7:254 7:255 32 0] 
r 65.128150793 _7_ AGT  --- 1566500026 diffusion 0 [0 0 0 0] ------- [7:255 7:254 32 0] 
r 65.129772010 _6_ AGT  --- 557533833 diffusion 0 [0 0 0 0] ------- [6:255 6:254 32 0] 
s 65.129773010 _6_ AGT  --- 1811076640 diffusion 0 [0 0 0 0] ------- [6:254 6:255 32 0] 
s 65.129773010 _6_ AGT  --- 1811076641 diffusion 0 [0 0 0 0] ------- [6:254 6:255 32 0] 
r 65.129774010 _6_ AGT  --- 1566500026 diffusion 0 [0 0 0 0] ------- [6:255 6:254 32 0] 
r 65.134988045 _8_ AGT  --- 1180591537 diffusion 0 [0 0 0 0] ------- [8:255 8:254 32 0] 
s 65.134989045 _8_ AGT  --- 379186004 diffusion 0 [0 0 0 0] ------- [8:254 8:255 32 0] 
r 65.134990045 _8_ AGT  --- 1566500026 diffusion 0 [0 0 0 0] ------- [8:255 8:254 32 0] 
s 70.123001000 _2_ AGT  --- 1566500030 diffusion 0 [0 0 0 0] ------- [2:254 2:255 32 0] 
r 70.123002000 _2_ AGT  --- 580900473 diffusion 0 [0 0 0 0] ------- [2:255 2:254 32 0] 
s 70.123003000 _2_ AGT  --- 1566500031 diffusion 0 [0 0 0 0] ------- [2:254 2:255 32 0] 
s 70.123003000 _2_ AGT  --- 1566500032 diffusion 0 [0 0 0 0] ------- [2:254 2:255 32 0] 
s 70.123003000 _2_ AGT  --- 1566500033 diffusion 0 [0 0 0 0] ------- [2:254 2:255 32 0] 
r 70.124464984 _9_ AGT  --- 495722049 diffusion 0 [0 0 0 0] ------- [9:255 9:254 32 0] 
s 70.124465984 _9_ AGT  --- 1003364354 diffusion 0 [0 0 0 0] ------- [9:254 9:255 32 0] 
r 70.124466984 _9_ AGT  --- 1566500030 diffusion 0 [0 0 0 0] ------- [9:255 9:254 32 0] 
r 70.126066669 _3_ AGT  --- 1223941511 diffusion 0 [0 0 0 0] ------- [3:255 3:254 32 0] 
s 70.126067669 _3_ AGT  --- 1437693532 diffusion 0 [0 0 0 0] ------- [3:254 3:255 32 0] 
r 70.127629118 _6_ AGT  --- 557533834 diffusion 0 [0 0 0 0] ------- [6:255 6:254 32 0] 
s 70.127630118 _6_ AGT  --- 1811076642 diffusion 0 [0 0 0 0] ------- [6:254 6:255 32 0] 
s 70.127630118 _6_ AGT  --- 1811076643 diffusion 0 [0 0 0 0] ------- [6:254 6:255 32 0] 
r 70.127631118 _6_ AGT  --- 1566500030 diffusion 0 [0 0 0 0] ------- [6:255 6:254 32 0] 
r 70.129489561 _8_ AGT  --- 1180591538 diffusion 0 [0 0 0 0] ------- [8:255 8:254 32 0] 
s 70.129490561 _8_ AGT  --- 379186005 diffusion 0 [0 0 0 0] ------- [8:254 8:255 32 0] 
r 70.129491561 _8_ AGT  --- 1566500030 diffusion 0 [0 0 0 0] ------- [8:255 8:254 32 0] 
r 70.131852583 _7_ AGT  --- 394266834 diffusion 0 [0 0 0 0] ------- [7:255 7:254 32 0] 
s 70.131853583 _7_ AGT  --- 1732828147 diffusion 0 [0 0 0 0] ------- [7:254 7:255 32 0] 
r 70.131854583 _7_ AGT  --- 1566500030 diffusion 0 [0 0 0 0] ------- [7:255 7:254 32 0] 
s 71.615001000 _8_ AGT  --- 379186006 diffusion 0 [0 0 0 0] ------- [8:254 8:255 32 0] 
r 71.615002000 _8_ AGT  --- 1180591539 diffusion 0 [0 0 0 0] ------- [8:255 8:254 32 0] 
s 75.123001000 _2_ AGT  --- 1566500034 diffusion 0 [0 0 0 0] ------- [2:254 2:255 32 0] 
r 75.123002000 _2_ AGT  --- 580900474 diffusion 0 [0 0 0 0] ------- [2:255 2:254 32 0] 
s 75.123003000 _2_ AGT  --- 1566500035 diffusion 0 [0 0 0 0] ------- [2:254 2:255 32 0] 
s 75.123003000 _2_ AGT  --- 1566500036 diffusion 0 [0 0 0 0] ------- [2:254 2:255 32 0] 
s 75.123003000 _2_ AGT  --- 1566500037 diffusion 0 [0 0 0 0] ------- [2:254 2:255 32 0] 
r 75.124584984 _9_ AGT  --- 495722050 diffusion 0 [0 0 0 0] ------- [9:255 9:254 32 0] 
s 75.124585984 _9_ AGT  --- 1003364355 diffusion 0 [0 0 0 0] ------- [9:254 9:255 32 0] 
r 75.124586984 _9_ AGT  --- 1566500034 diffusion 0 [0 0 0 0] ------- [9:255 9:254 32 0] 
r 75.126206669 _3_ AGT  --- 1223941512 diffusion 0 [0 0 0 0] ------- [3:255 3:254 32 0] 
s 75.126207669 _3_ AGT  --- 1437693533 diffusion 0 [0 0 0 0] ------- [3:254 3:255 32 0] 
r 75.128248793 _7_ AGT  --- 394266835 diffusion 0 [0 0 0 0] ------- [7:255 7:254 32 0] 
s 75.128249793 _7_ AGT  --- 1732828148 diffusion 0 [0 0 0 0] ------- [7:254 7:255 32 0] 
r 75.128250793 _7_ AGT  --- 1566500034 diffusion 0 [0 0 0 0] ------- [7:255 7:254 32 0] 
r 75.129812010 _6_ AGT  --- 557533835 diffusion 0 [0 0 0 0] ------- [6:255 6:254 32 0] 
s 75.129813010 _6_ AGT  --- 1811076644 diffusion 0 [0 0 0 0] ------- [6:254 6:255 32 0] 
s 75.129813010 _6_ AGT  --- 1811076645 diffusion 0 [0 0 0 0] ------- [6:254 6:255 32 0] 
r 75.129814010 _6_ AGT  --- 1566500034 diffusion 0 [0 0 0 0] ------- [6:255 6:254 32 0] 
r 75.131692453 _8_ AGT  --- 1180591540 diffusion 0 [0 0 0 0] ------- [8:255 8:254 32 0] 
s 75.131693453 _8_ AGT  --- 379186007 diffusion 0 [0 0 0 0] ------- [8:254 8:255 32 0] 
r 75.131694453 _8_ AGT  --- 1566500034 diffusion 0 [0 0 0 0] ------- [8:255 8:254 32 0] 
s 78.795001000 _9_ AGT  --- 1003364356 diffusion 0 [0 0 0 0] ------- [9:254 9:255 32 0] 
r 78.795002000 _9_ AGT  --- 495722051 diffusion 0 [0 0 0 0] ------- [9:255 9:254 32 0] 
s 80.000001000 _0_ AGT  --- 1190071895 diffusion 0 [0 0 0 0] ------- [0:254 0:255 32 0] 
s 80.000001000 _1_ AGT  --- 528599283 diffusion 0 [0 0 0 0] ------- [1:254 1:255 32 0] 
s 80.000001000 _2_ AGT  --- 1566500038 diffusion 0 [0 0 0 0] ------- [2:254 2:255 32 0] 
s 80.000001000 _3_ AGT  --- 1437693534 diffusion 0 [0 0 0 0] ------- [3:254 3:255 32 0] 
s 80.000001000 _4_ AGT  --- 300615859 diffusion 0 [0 0 0 0] ------- [4:254 4:255 32 0] 
s 80.000001000 _5_ AGT  --- 905258845 diffusion 0 [0 0 0 0] ------- [5:254 5:255 32 0] 
s 80.000001000 _6_ AGT  --- 1811076646 diffusion 0 [0 0 0 0] ------- [6:254 6:255 32 0] 
s 80.000001000 _7_ AGT  --- 1732828149 diffusion 0 [0 0 0 0] ------- [7:254 7:255 32 0] 
s 80.000001000 _8_ AGT  --- 379186008 diffusion 0 [0 0 0 0] ------- [8:254 8:255 32 0] 
s 80.000001000 _9_ AGT  --- 1003364357 diffusion 0 [0 0 0 0] ------- [9:254 9:255 32 0] 
s 80.123001000 _2_ AGT  --- 1566500039 diffusion 0 [0 0 0 0] ------- [2:254 2:255 32 0] 
r 80.123002000 _2_ AGT  --- 580900475 diffusion 0 [0 0 0 0] ------- [2:255 2:254 32 0] 
s 80.123003000 _2_ AGT  --- 1566500040 diffusion 0 [0 0 0 0] ------- [2:254 2:255 32 0] 
s 80.123003000 _2_ AGT  --- 1566500041 diffusion 0 [0 0 0 0] ------- [2:254 2:255 32 0] 
s 80.123003000 _2_ AGT  --- 1566500042 diffusion 0 [0 0 0 0] ------- [2:254 2:255 32 0] 
r 80.124544984 _9_ AGT  --- 495722052 diffusion 0 [0 0 0 0] ------- [9:255 9:254 32 0] 
s 80.124545984 _9_ AGT  --- 1003364358 diffusion 0 [0 0 0 0] ------- [9:254 9:255 32 0] 
r 80.124546984 _9_ AGT  --- 1566500039 diffusion 0 [0 0 0 0] ------- [9:255 9:254 32 0] 
r 80.126566669 _3_ AGT  --- 1223941513 diffusion 0 [0 0 0 0] ------- [3:255 3:254 32 0] 
s 80.126567669 _3_ AGT  --- 1437693535 diffusion 0 [0 0 0 0] ------- [3:254 3:255 32 0] 
r 80.128488793 _7_ AGT  --- 394266836 diffusion 0 [0 0 0 0] ------- [7:255 7:254 32 0] 
s 80.128489793 _7_ AGT  --- 1732828150 diffusion 0 [0 0 0 0] ------- [7:254 7:255 32 0] 
r 80.128490793 _7_ AGT  --- 1566500039 diffusion 0 [0 0 0 0] ------- [7:255 7:254 32 0] 
r 80.130132010 _6_ AGT  --- 557533836 diffusion 0 [0 0 0 0] ------- [6:255 6:254 32 0] 
s 80.130133010 _6_ AGT  --- 1811076647 diffusion 0 [0 0 0 0] ------- [6:254 6:255 32 0] 
s 80.130133010 _6_ AGT  --- 1811076648 diffusion 0 [0 0 0 0] ------- [6:254 6:255 32 0] 
r 80.130134010 _6_ AGT  --- 1566500039 diffusion 0 [0 0 0 0] ------- [6:255 6:254 32 0] 
r 80.132052453 _8_ AGT  --- 1180591541 diffusion 0 [0 0 0 0] ------- [8:255 8:254 32 0] 
s 80.132053453 _8_ AGT  --- 379186009 diffusion 0 [0 0 0 0] ------- [8:254 8:255 32 0] 
r 80.132054453 _8_ AGT  --- 1566500039 diffusion 0 [0 0 0 0] ------- [8:255 8:254 32 0] 
s 85.123001000 _2_ AGT  --- 1566500043 diffusion 0 [0 0 0 0] ------- [2:254 2:255 32 0] 
r 85.123002000 _2_ AGT  --- 580900476 diffusion 0 [0 0 0 0] ------- [2:255 2:254 32 0] 
s 85.123003000 _2_ AGT  --- 1566500044 diffusion 0 [0 0 0 0] ------- [2:254 2:255 32 0] 
s 85.123003000 _2_ AGT  --- 1566500045 diffusion 0 [0 0 0 0] ------- [2:254 2:255 32 0] 
s 85.123003000 _2_ AGT  --- 1566500046 diffusion 0 [0 0 0 0] ------- [2:254 2:255 32 0] 
r 85.124564984 _9_ AGT  --- 495722053 diffusion 0 [0 0 0 0] ------- [9:255 9:254 32 0] 
s 85.124565984 _9_ AGT  --- 1003364359 diffusion 0 [0 0 0 0] ------- [9:254 9:255 32 0] 
r 85.124566984 _9_ AGT  --- 1566500043 diffusion 0 [0 0 0 0] ------- [9:255 9:254 32 0] 
r 85.126106669 _3_ AGT  --- 1223941514 diffusion 0 [0 0 0 0] ------- [3:255 3:254 32 0] 
s 85.126107669 _3_ AGT  --- 1437693536 diffusion 0 [0 0 0 0] ------- [3:254 3:255 32 0] 
r 85.127729118 _6_ AGT  --- 557533837 diffusion 0 [0 0 0 0] ------- [6:255 6:254 32 0] 
s 85.127730118 _6_ AGT  --- 1811076649 diffusion 0 [0 0 0 0] ------- [6:254 6:255 32 0] 
s 85.127730118 _6_ AGT  --- 1811076650 diffusion 0 [0 0 0 0] ------- [6:254 6:255 32 0] 
r 85.127731118 _6_ AGT  --- 1566500043 diffusion 0 [0 0 0 0] ------- [6:255 6:254 32 0] 
r 85.129709561 _8_ AGT  --- 1180591542 diffusion 0 [0 0 0 0] ------- [8:255 8:254 32 0] 
s 85.129710561 _8_ AGT  --- 379186010 diffusion 0 [0 0 0 0] ------- [8:254 8:255 32 0] 
r 85.129711561 _8_ AGT  --- 1566500043 diffusion 0 [0 0 0 0] ------- [8:255 8:254 32 0] 
r 85.131772583 _7_ AGT  --- 394266837 diffusion 0 [0 0 0 0] ------- [7:255 7:254 32 0] 
s 85.131773583 _7_ AGT  --- 1732828151 diffusion 0 [0 0 0 0] ------- [7:254 7:255 32 0] 
r 85.131774583 _7_ AGT  --- 1566500043 diffusion 0 [0 0 0 0] ------- [7:255 7:254 32 0] 
s 86.312001000 _8_ AGT  --- 379186011 diffusion 0 [0 0 0 0] ------- [8:254 8:255 32 0] 
r 86.312002000 _8_ AGT  --- 1180591543 diffusion 0 [0 0 0 0] ------- [8:255 8:254 32 0] 
s 90.123001000 _2_ AGT  --- 1566500047 diffusion 0 [0 0 0 0] ------- [2:254 2:255 32 0] 
r 90.123002000 _2_ AGT  --- 580900477 diffusion 0 [0 0 0 0] ------- [2:255 2:254 32 0] 
s 90.123003000 _2_ AGT  --- 1566500048 diffusion 0 [0 0 0 0] ------- [2:254 2:255 32 0] 
s 90.123003000 _2_ AGT  --- 1566500049 diffusion 0 [0 0 0 0] ------- [2:254 2:255 32 0] 
s 90.123003000 _2_ AGT  --- 1566500050 diffusion 0 [0 0 0 0] ------- [2:254 2:255 32 0] 
r 90.124824984 _9_ AGT  --- 495722054 diffusion 0 [0 0 0 0] ------- [9:255 9:254 32 0] 
s 90.124825984 _9_ AGT  --- 1003364360 diffusion 0 [0 0 0 0] ------- [9:254 9:255 32 0] 
r 90.124826984 _9_ AGT  --- 1566500047 diffusion 0 [0 0 0 0] ------- [9:255 9:254 32 0] 
r 90.126866669 _3_ AGT  --- 1223941515 diffusion 0 [0 0 0 0] ------- [3:255 3:254 32 0] 
s 90.126867669 _3_ AGT  --- 1437693537 diffusion 0 [0 0 0 0] ------- [3:254 3:255 32 0] 
r 90.128789118 _6_ AGT  --- 557533838 diffusion 0 [0 0 0 0] ------- [6:255 6:254 32 0] 
s 90.128790118 _6_ AGT  --- 1811076651 diffusion 0 [0 0 0 0] ------- [6:254 6:255 32 0] 
s 90.128790118 _6_ AGT  --- 1811076652 diffusion 0 [0 0 0 0] ------- [6:254 6:255 32 0] 