s 0.000001000 _0_ AGT  --- 1190071889 diffusion 0 [0 0 0 0] ------- [0:254 0:255 32 0] 
r 0.000001000 _0_ RTR  --- 1190071889 diffusion 0 [0 0 0 0] ------- [0:254 0:255 32 0] 
s 0.000001000 _1_ AGT  --- 528599277 diffusion 0 [0 0 0 0] ------- [1:254 1:255 32 0] 
r 0.000001000 _1_ RTR  --- 528599277 diffusion 0 [0 0 0 0] ------- [1:254 1:255 32 0] 
s 0.000001000 _2_ AGT  --- 1566500007 diffusion 0 [0 0 0 0] ------- [2:254 2:255 32 0] 
r 0.000001000 _2_ RTR  --- 1566500007 diffusion 0 [0 0 0 0] ------- [2:254 2:255 32 0] 
s 0.133001000 _0_ AGT  --- 1190071890 diffusion 0 [0 0 0 0] ------- [0:254 0:255 32 0] 
r 0.133001000 _0_ RTR  --- 1190071890 diffusion 0 [0 0 0 0] ------- [0:254 0:255 32 0] 
r 0.133002000 _0_ AGT  --- 2045655601 diffusion 0 [0 0 0 0] ------- [0:255 0:254 32 0] 
s 1.466001000 _2_ AGT  --- 1566500008 diffusion 0 [0 0 0 0] ------- [2:254 2:255 32 0] 
r 1.466001000 _2_ RTR  --- 1566500008 diffusion 0 [0 0 0 0] ------- [2:254 2:255 32 0] 
r 1.466002000 _2_ AGT  --- 580900445 diffusion 0 [0 0 0 0] ------- [2:255 2:254 32 0] 
s 1.545003000 _2_ AGT  --- 1566500009 diffusion 0 [0 0 0 0] ------- [2:254 2:255 32 0] 
r 1.545003000 _2_ RTR  --- 1566500009 diffusion 0 [0 0 0 0] ------- [2:254 2:255 32 0] 
r 1.545715831 _1_ RTR  --- 1566500008 diffusion 0 [0 ffffffff 2 800] ------- [2:255 -1:255 32 0] 
r 1.545716831 _1_ AGT  --- 1225933899 diffusion 0 [0 0 0 0] ------- [1:255 1:254 32 0] 
s 1.635717831 _1_ AGT  --- 528599278 diffusion 0 [0 0 0 0] ------- [1:254 1:255 32 0] 
r 1.635717831 _1_ RTR  --- 528599278 diffusion 0 [0 0 0 0] ------- [1:254 1:255 32 0] 
r 1.636770659 _0_ RTR  --- 1566500008 diffusion 0 [0 ffffffff 1 800] ------- [1:255 -1:255 32 0] 
r 1.636770663 _2_ RTR  --- 1566500008 diffusion 0 [0 ffffffff 1 800] ------- [1:255 -1:255 32 0] 
r 1.636771659 _0_ AGT  --- 2045655602 diffusion 0 [0 0 0 0] ------- [0:255 0:254 32 0] 
r 1.636771663 _2_ AGT  --- 580900446 diffusion 0 [0 0 0 0] ------- [2:255 2:254 32 0] 
s 1.636772659 _0_ AGT  --- 1190071891 diffusion 0 [0 0 0 0] ------- [0:254 0:255 32 0] 
r 1.636772659 _0_ RTR  --- 1190071891 diffusion 0 [0 0 0 0] ------- [0:254 0:255 32 0] 
r 1.636773659 _0_ AGT  --- 0 diffusion 0 [0 0 0 0] ------- [0:255 0:254 32 0] 
s 1.728772659 _0_ AGT  --- 1190071892 diffusion 0 [0 0 0 0] ------- [0:254 0:255 32 0] 
r 1.728772659 _0_ RTR  --- 1190071892 diffusion 0 [0 0 0 0] ------- [0:254 0:255 32 0] 
r 1.729685486 _1_ RTR  --- 1566500008 diffusion 0 [0 ffffffff 0 800] ------- [0:255 -1:255 32 0] 
r 1.729686486 _1_ AGT  --- 1225933900 diffusion 0 [0 0 0 0] ------- [1:255 1:254 32 0] 
s 5.123001000 _0_ AGT  --- 1190071893 diffusion 0 [0 0 0 0] ------- [0:254 0:255 32 0] 
r 5.123001000 _0_ RTR  --- 1190071893 diffusion 0 [0 0 0 0] ------- [0:254 0:255 32 0] 
r 5.123002000 _0_ AGT  --- 2045655603 diffusion 0 [0 0 0 0] ------- [0:255 0:254 32 0] 
s 5.123003000 _0_ AGT  --- 1190071894 diffusion 0 [0 0 0 0] ------- [0:254 0:255 32 0] 
r 5.123003000 _0_ RTR  --- 1190071894 diffusion 0 [0 0 0 0] ------- [0:254 0:255 32 0] 
r 5.127303791 _1_ RTR  --- 1190071893 diffusion 0 [14a 1 0 800] ------- [0:255 1:255 32 1] 
r 5.127304791 _1_ AGT  --- 1225933901 diffusion 0 [0 0 0 0] ------- [1:255 1:254 32 0] 
s 5.127305791 _1_ AGT  --- 528599279 diffusion 0 [0 0 0 0] ------- [1:254 1:255 32 0] 
r 5.127305791 _1_ RTR  --- 528599279 diffusion 0 [0 0 0 0] ------- [1:254 1:255 32 0] 
s 5.127305791 _1_ AGT  --- 528599280 diffusion 0 [0 0 0 0] ------- [1:254 1:255 32 0] 
r 5.127305791 _1_ RTR  --- 528599280 diffusion 0 [0 0 0 0] ------- [1:254 1:255 32 0] 
r 5.129792273 _0_ RTR  --- 1190071893 diffusion 0 [14a 0 1 800] ------- [1:255 0:255 32 0] 
r 5.129793273 _0_ AGT  --- 2045655604 diffusion 0 [0 0 0 0] ------- [0:255 0:254 32 0] 
r 5.134062912 _2_ RTR  --- 1190071893 diffusion 0 [14a 2 1 800] ------- [1:255 2:255 32 2] 
r 5.134063912 _2_ AGT  --- 580900447 diffusion 0 [0 0 0 0] ------- [2:255 2:254 32 0] 
s 5.134064912 _2_ AGT  --- 1566500010 diffusion 0 [0 0 0 0] ------- [2:254 2:255 32 0] 
r 5.134064912 _2_ RTR  --- 1566500010 diffusion 0 [0 0 0 0] ------- [2:254 2:255 32 0] 
s 5.134064912 _2_ AGT  --- 1566500011 diffusion 0 [0 0 0 0] ------- [2:254 2:255 32 0] 
r 5.134064912 _2_ RTR  --- 1566500011 diffusion 0 [0 0 0 0] ------- [2:254 2:255 32 0] 
r 5.134065912 _2_ AGT  --- 1190071893 diffusion 0 [0 0 0 0] ------- [2:255 2:254 32 0] 
r 5.135965406 _1_ RTR  --- 1190071893 diffusion 0 [14a 1 2 800] ------- [2:255 1:255 32 1] 
r 5.135966406 _1_ AGT  --- 1225933902 diffusion 0 [0 0 0 0] ------- [1:255 1:254 32 0] 
s 5.807064912 _2_ AGT  --- 1566500012 diffusion 0 [0 0 0 0] ------- [2:254 2:255 32 0] 
r 5.807064912 _2_ RTR  --- 1566500012 diffusion 0 [0 0 0 0] ------- [2:254 2:255 32 0] 
r 5.808787406 _1_ RTR  --- 1709957113 diffusion 0 [14a 1 2 800] ------- [2:255 1:255 32 1] 
r 5.808788406 _1_ AGT  --- 1225933903 diffusion 0 [0 0 0 0] ------- [1:255 1:254 32 0] 
s 5.808789406 _1_ AGT  --- 528599281 diffusion 0 [0 0 0 0] ------- [1:254 1:255 32 0] 
r 5.808789406 _1_ RTR  --- 528599281 diffusion 0 [0 0 0 0] ------- [1:254 1:255 32 0] 
r 5.810649888 _0_ RTR  --- 1709957113 diffusion 0 [14a 0 1 800] ------- [1:255 0:255 32 0] 
r 5.810650888 _0_ AGT  --- 2045655605 diffusion 0 [0 0 0 0] ------- [0:255 0:254 32 0] 
s 10.123001000 _0_ AGT  --- 1190071895 diffusion 0 [0 0 0 0] ------- [0:254 0:255 32 0] 
r 10.123001000 _0_ RTR  --- 1190071895 diffusion 0 [0 0 0 0] ------- [0:254 0:255 32 0] 
r 10.123002000 _0_ AGT  --- 2045655606 diffusion 0 [0 0 0 0] ------- [0:255 0:254 32 0] 
s 10.123003000 _0_ AGT  --- 1190071896 diffusion 0 [0 0 0 0] ------- [0:254 0:255 32 0] 
r 10.123003000 _0_ RTR  --- 1190071896 diffusion 0 [0 0 0 0] ------- [0:254 0:255 32 0] 
r 10.124685482 _1_ RTR  --- 1190071895 diffusion 0 [14a 1 0 800] ------- [0:255 1:255 32 1] 
r 10.124686482 _1_ AGT  --- 1225933904 diffusion 0 [0 0 0 0] ------- [1:255 1:254 32 0] 
s 10.124687482 _1_ AGT  --- 528599282 diffusion 0 [0 0 0 0] ------- [1:254 1:255 32 0] 
r 10.124687482 _1_ RTR  --- 528599282 diffusion 0 [0 0 0 0] ------- [1:254 1:255 32 0] 
r 10.126207976 _2_ RTR  --- 1190071895 diffusion 0 [14a 2 1 800] ------- [1:255 2:255 32 2] 
r 10.126208976 _2_ AGT  --- 580900448 diffusion 0 [0 0 0 0] ------- [2:255 2:254 32 0] 
s 10.126209976 _2_ AGT  --- 1566500013 diffusion 0 [0 0 0 0] ------- [2:254 2:255 32 0] 
r 10.126209976 _2_ RTR  --- 1566500013 diffusion 0 [0 0 0 0] ------- [2:254 2:255 32 0] 
r 10.126210976 _2_ AGT  --- 1190071895 diffusion 0 [0 0 0 0] ------- [2:255 2:254 32 0] 
s 15.123001000 _0_ AGT  --- 1190071897 diffusion 0 [0 0 0 0] ------- [0:254 0:255 32 0] 
r 15.123001000 _0_ RTR  --- 1190071897 diffusion 0 [0 0 0 0] ------- [0:254 0:255 32 0] 
r 15.123002000 _0_ AGT  --- 2045655607 diffusion 0 [0 0 0 0] ------- [0:255 0:254 32 0] 
s 15.123003000 _0_ AGT  --- 1190071898 diffusion 0 [0 0 0 0] ------- [0:254 0:255 32 0] 
r 15.123003000 _0_ RTR  --- 1190071898 diffusion 0 [0 0 0 0] ------- [0:254 0:255 32 0] 
r 15.124305482 _1_ RTR  --- 1190071897 diffusion 0 [14a 1 0 800] ------- [0:255 1:255 32 1] 
r 15.124306482 _1_ AGT  --- 1225933905 diffusion 0 [0 0 0 0] ------- [1:255 1:254 32 0] 
s 15.124307482 _1_ AGT  --- 528599283 diffusion 0 [0 0 0 0] ------- [1:254 1:255 32 0] 
r 15.124307482 _1_ RTR  --- 528599283 diffusion 0 [0 0 0 0] ------- [1:254 1:255 32 0] 
r 15.126347976 _2_ RTR  --- 1190071897 diffusion 0 [14a 2 1 800] ------- [1:255 2:255 32 2] 
r 15.126348976 _2_ AGT  --- 580900449 diffusion 0 [0 0 0 0] ------- [2:255 2:254 32 0] 
s 15.126349976 _2_ AGT  --- 1566500014 diffusion 0 [0 0 0 0] ------- [2:254 2:255 32 0] 
r 15.126349976 _2_ RTR  --- 1566500014 diffusion 0 [0 0 0 0] ------- [2:254 2:255 32 0] 
r 15.126350976 _2_ AGT  --- 1190071897 diffusion 0 [0 0 0 0] ------- [2:255 2:254 32 0] 
s 20.000001000 _0_ AGT  --- 1190071899 diffusion 0 [0 0 0 0] ------- [0:254 0:255 32 0] 
r 20.000001000 _0_ RTR  --- 1190071899 diffusion 0 [0 0 0 0] ------- [0:254 0:255 32 0] 
s 20.000001000 _1_ AGT  --- 528599284 diffusion 0 [0 0 0 0] ------- [1:254 1:255 32 0] 
r 20.000001000 _1_ RTR  --- 528599284 diffusion 0 [0 0 0 0] ------- [1:254 1:255 32 0] 
s 20.000001000 _2_ AGT  --- 1566500015 diffusion 0 [0 0 0 0] ------- [2:254 2:255 32 0] 
r 20.000001000 _2_ RTR  --- 1566500015 diffusion 0 [0 0 0 0] ------- [2:254 2:255 32 0] 
s 20.123001000 _0_ AGT  --- 1190071900 diffusion 0 [0 0 0 0] ------- [0:254 0:255 32 0] 
r 20.123001000 _0_ RTR  --- 1190071900 diffusion 0 [0 0 0 0] ------- [0:254 0:255 32 0] 
r 20.123002000 _0_ AGT  --- 2045655608 diffusion 0 [0 0 0 0] ------- [0:255 0:254 32 0] 
s 20.123003000 _0_ AGT  --- 1190071901 diffusion 0 [0 0 0 0] ------- [0:254 0:255 32 0] 
r 20.123003000 _0_ RTR  --- 1190071901 diffusion 0 [0 0 0 0] ------- [0:254 0:255 32 0] 
r 20.124645482 _1_ RTR  --- 1190071900 diffusion 0 [14a 1 0 800] ------- [0:255 1:255 32 1] 
r 20.124646482 _1_ AGT  --- 1225933906 diffusion 0 [0 0 0 0] ------- [1:255 1:254 32 0] 
s 20.124647482 _1_ AGT  --- 528599285 diffusion 0 [0 0 0 0] ------- [1:254 1:255 32 0] 
r 20.124647482 _1_ RTR  --- 528599285 diffusion 0 [0 0 0 0] ------- [1:254 1:255 32 0] 
r 20.126287976 _2_ RTR  --- 1190071900 diffusion 0 [14a 2 1 800] ------- [1:255 2:255 32 2] 
r 20.126288976 _2_ AGT  --- 580900450 diffusion 0 [0 0 0 0] ------- [2:255 2:254 32 0] 
s 20.126289976 _2_ AGT  --- 1566500016 diffusion 0 [0 0 0 0] ------- [2:254 2:255 32 0] 
r 20.126289976 _2_ RTR  --- 1566500016 diffusion 0 [0 0 0 0] ------- [2:254 2:255 32 0] 
r 20.126290976 _2_ AGT  --- 1190071900 diffusion 0 [0 0 0 0] ------- [2:255 2:254 32 0] 
s 25.123001000 _0_ AGT  --- 1190071902 diffusion 0 [0 0 0 0] ------- [0:254 0:255 32 0] 
r 25.123001000 _0_ RTR  --- 1190071902 diffusion 0 [0 0 0 0] ------- [0:254 0:255 32 0] 
r 25.123002000 _0_ AGT  --- 2045655609 diffusion 0 [0 0 0 0] ------- [0:255 0:254 32 0] 
s 25.123003000 _0_ AGT  --- 1190071903 diffusion 0 [0 0 0 0] ------- [0:254 0:255 32 0] 
r 25.123003000 _0_ RTR  --- 1190071903 diffusion 0 [0 0 0 0] ------- [0:254 0:255 32 0] 
r 25.124565482 _1_ RTR  --- 1190071902 diffusion 0 [14a 1 0 800] ------- [0:255 1:255 32 1] 
r 25.124566482 _1_ AGT  --- 1225933907 diffusion 0 [0 0 0 0] ------- [1:255 1:254 32 0] 
s 25.124567482 _1_ AGT  --- 528599286 diffusion 0 [0 0 0 0] ------- [1:254 1:255 32 0] 
r 25.124567482 _1_ RTR  --- 528599286 diffusion 0 [0 0 0 0] ------- [1:254 1:255 32 0] 
r 25.126487976 _2_ RTR  --- 1190071902 diffusion 0 [14a 2 1 800] ------- [1:255 2:255 32 2] 
r 25.126488976 _2_ AGT  --- 580900451 diffusion 0 [0 0 0 0] ------- [2:255 2:254 32 0] 
s 25.126489976 _2_ AGT  --- 1566500017 diffusion 0 [0 0 0 0] ------- [2:254 2:255 32 0] 
r 25.126489976 _2_ RTR  --- 1566500017 diffusion 0 [0 0 0 0] ------- [2:254 2:255 32 0] 
r 25.126490976 _2_ AGT  --- 1190071902 diffusion 0 [0 0 0 0] ------- [2:255 2:254 32 0] 
s 25.448001000 _0_ AGT  --- 1190071904 diffusion 0 [0 0 0 0] ------- [0:254 0:255 32 0] 
r 25.448001000 _0_ RTR  --- 1190071904 diffusion 0 [0 0 0 0] ------- [0:254 0:255 32 0] 
r 25.448002000 _0_ AGT  --- 2045655610 diffusion 0 [0 0 0 0] ------- [0:255 0:254 32 0] 
s 30.123001000 _0_ AGT  --- 1190071905 diffusion 0 [0 0 0 0] ------- [0:254 0:255 32 0] 
r 30.123001000 _0_ RTR  --- 1190071905 diffusion 0 [0 0 0 0] ------- [0:254 0:255 32 0] 
r 30.123002000 _0_ AGT  --- 2045655611 diffusion 0 [0 0 0 0] ------- [0:255 0:254 32 0] 
s 30.123003000 _0_ AGT  --- 1190071906 diffusion 0 [0 0 0 0] ------- [0:254 0:255 32 0] 
r 30.123003000 _0_ RTR  --- 1190071906 diffusion 0 [0 0 0 0] ------- [0:254 0:255 32 0] 
r 30.124265482 _1_ RTR  --- 1190071905 diffusion 0 [14a 1 0 800] ------- [0:255 1:255 32 1] 
r 30.124266482 _1_ AGT  --- 1225933908 diffusion 0 [0 0 0 0] ------- [1:255 1:254 32 0] 
s 30.124267482 _1_ AGT  --- 528599287 diffusion 0 [0 0 0 0] ------- [1:254 1:255 32 0] 
r 30.124267482 _1_ RTR  --- 528599287 diffusion 0 [0 0 0 0] ------- [1:254 1:255 32 0] 
r 30.126347976 _2_ RTR  --- 1190071905 diffusion 0 [14a 2 1 800] ------- [1:255 2:255 32 2] 
r 30.126348976 _2_ AGT  --- 580900452 diffusion 0 [0 0 0 0] ------- [2:255 2:254 32 0] 
s 30.126349976 _2_ AGT  --- 1566500018 diffusion 0 [0 0 0 0] ------- [2:254 2:255 32 0] 
r 30.126349976 _2_ RTR  --- 1566500018 diffusion 0 [0 0 0 0] ------- [2:254 2:255 32 0] 
r 30.126350976 _2_ AGT  --- 1190071905 diffusion 0 [0 0 0 0] ------- [2:255 2:254 32 0] 
s 34.678001000 _2_ AGT  --- 1566500019 diffusion 0 [0 0 0 0] ------- [2:254 2:255 32 0] 
r 34.678001000 _2_ RTR  --- 1566500019 diffusion 0 [0 0 0 0] ------- [2:254 2:255 32 0] 
r 34.678002000 _2_ AGT  --- 580900453 diffusion 0 [0 0 0 0] ------- [2:255 2:254 32 0] 
s 34.791003000 _2_ AGT  --- 1566500020 diffusion 0 [0 0 0 0] ------- [2:254 2:255 32 0] 
r 34.791003000 _2_ RTR  --- 1566500020 diffusion 0 [0 0 0 0] ------- [2:254 2:255 32 0] 
r 34.791895831 _1_ RTR  --- 1566500019 diffusion 0 [0 ffffffff 2 800] ------- [2:255 -1:255 32 0] 
r 34.791896831 _1_ AGT  --- 1225933909 diffusion 0 [0 0 0 0] ------- [1:255 1:254 32 0] 
s 34.887897831 _1_ AGT  --- 528599288 diffusion 0 [0 0 0 0] ------- [1:254 1:255 32 0] 
r 34.887897831 _1_ RTR  --- 528599288 diffusion 0 [0 0 0 0] ------- [1:254 1:255 32 0] 
r 34.888630659 _0_ RTR  --- 1566500019 diffusion 0 [0 ffffffff 1 800] ------- [1:255 -1:255 32 0] 
r 34.888630663 _2_ RTR  --- 1566500019 diffusion 0 [0 ffffffff 1 800] ------- [1:255 -1:255 32 0] 
r 34.888631659 _0_ AGT  --- 2045655612 diffusion 0 [0 0 0 0] ------- [0:255 0:254 32 0] 
r 34.888631663 _2_ AGT  --- 580900454 diffusion 0 [0 0 0 0] ------- [2:255 2:254 32 0] 
s 34.988632659 _0_ AGT  --- 1190071907 diffusion 0 [0 0 0 0] ------- [0:254 0:255 32 0] 
r 34.988632659 _0_ RTR  --- 1190071907 diffusion 0 [0 0 0 0] ------- [0:254 0:255 32 0] 
r 34.989645486 _1_ RTR  --- 1566500019 diffusion 0 [0 ffffffff 0 800] ------- [0:255 -1:255 32 0] 
r 34.989646486 _1_ AGT  --- 1225933910 diffusion 0 [0 0 0 0] ------- [1:255 1:254 32 0] 
s 35.123001000 _0_ AGT  --- 1190071908 diffusion 0 [0 0 0 0] ------- [0:254 0:255 32 0] 
r 35.123001000 _0_ RTR  --- 1190071908 diffusion 0 [0 0 0 0] ------- [0:254 0:255 32 0] 
r 35.123002000 _0_ AGT  --- 2045655613 diffusion 0 [0 0 0 0] ------- [0:255 0:254 32 0] 
s 35.123003000 _0_ AGT  --- 1190071909 diffusion 0 [0 0 0 0] ------- [0:254 0:255 32 0] 
r 35.123003000 _0_ RTR  --- 1190071909 diffusion 0 [0 0 0 0] ------- [0:254 0:255 32 0] 
r 35.124365482 _1_ RTR  --- 1190071908 diffusion 0 [14a 1 0 800] ------- [0:255 1:255 32 1] 
r 35.124366482 _1_ AGT  --- 1225933911 diffusion 0 [0 0 0 0] ------- [1:255 1:254 32 0] 
s 35.124367482 _1_ AGT  --- 528599289 diffusion 0 [0 0 0 0] ------- [1:254 1:255 32 0] 
r 35.124367482 _1_ RTR  --- 528599289 diffusion 0 [0 0 0 0] ------- [1:254 1:255 32 0] 
r 35.125887976 _2_ RTR  --- 1190071908 diffusion 0 [14a 2 1 800] ------- [1:255 2:255 32 2] 
r 35.125888976 _2_ AGT  --- 580900455 diffusion 0 [0 0 0 0] ------- [2:255 2:254 32 0] 
s 35.125889976 _2_ AGT  --- 1566500021 diffusion 0 [0 0 0 0] ------- [2:254 2:255 32 0] 
r 35.125889976 _2_ RTR  --- 1566500021 diffusion 0 [0 0 0 0] ------- [2:254 2:255 32 0] 
r 35.125890976 _2_ AGT  --- 1190071908 diffusion 0 [0 0 0 0] ------- [2:255 2:254 32 0] 
s 40.000001000 _0_ AGT  --- 1190071910 diffusion 0 [0 0 0 0] ------- [0:254 0:255 32 0] 
r 40.000001000 _0_ RTR  --- 1190071910 diffusion 0 [0 0 0 0] ------- [0:254 0:255 32 0] 
s 40.000001000 _1_ AGT  --- 528599290 diffusion 0 [0 0 0 0] ------- [1:254 1:255 32 0] 
r 40.000001000 _1_ RTR  --- 528599290 diffusion 0 [0 0 0 0] ------- [1:254 1:255 32 0] 
s 40.000001000 _2_ AGT  --- 1566500022 diffusion 0 [0 0 0 0] ------- [2:254 2:255 32 0] 
r 40.000001000 _2_ RTR  --- 1566500022 diffusion 0 [0 0 0 0] ------- [2:254 2:255 32 0] 
s 40.123001000 _0_ AGT  --- 1190071911 diffusion 0 [0 0 0 0] ------- [0:254 0:255 32 0] 
r 40.123001000 _0_ RTR  --- 1190071911 diffusion 0 [0 0 0 0] ------- [0:254 0:255 32 0] 
r 40.123002000 _0_ AGT  --- 2045655614 diffusion 0 [0 0 0 0] ------- [0:255 0:254 32 0] 
s 40.123003000 _0_ AGT  --- 1190071912 diffusion 0 [0 0 0 0] ------- [0:254 0:255 32 0] 
r 40.123003000 _0_ RTR  --- 1190071912 diffusion 0 [0 0 0 0] ------- [0:254 0:255 32 0] 
r 40.124525482 _1_ RTR  --- 1190071911 diffusion 0 [14a 1 0 800] ------- [0:255 1:255 32 1] 
r 40.124526482 _1_ AGT  --- 1225933912 diffusion 0 [0 0 0 0] ------- [1:255 1:254 32 0] 
s 40.124527482 _1_ AGT  --- 528599291 diffusion 0 [0 0 0 0] ------- [1:254 1:255 32 0] 
r 40.124527482 _1_ RTR  --- 528599291 diffusion 0 [0 0 0 0] ------- [1:254 1:255 32 0] 
r 40.126507976 _2_ RTR  --- 1190071911 diffusion 0 [14a 2 1 800] ------- [1:255 2:255 32 2] 
r 40.126508976 _2_ AGT  --- 580900456 diffusion 0 [0 0 0 0] ------- [2:255 2:254 32 0] 
s 40.126509976 _2_ AGT  --- 1566500023 diffusion 0 [0 0 0 0] ------- [2:254 2:255 32 0] 
r 40.126509976 _2_ RTR  --- 1566500023 diffusion 0 [0 0 0 0] ------- [2:254 2:255 32 0] 
r 40.126510976 _2_ AGT  --- 1190071911 diffusion 0 [0 0 0 0] ------- [2:255 2:254 32 0] 
s 44.351001000 _2_ AGT  --- 1566500024 diffusion 0 [0 0 0 0] ------- [2:254 2:255 32 0] 
r 44.351001000 _2_ RTR  --- 1566500024 diffusion 0 [0 0 0 0] ------- [2:254 2:255 32 0] 
r 44.351002000 _2_ AGT  --- 580900457 diffusion 0 [0 0 0 0] ------- [2:255 2:254 32 0] 
s 44.453003000 _2_ AGT  --- 1566500025 diffusion 0 [0 0 0 0] ------- [2:254 2:255 32 0] 
r 44.453003000 _2_ RTR  --- 1566500025 diffusion 0 [0 0 0 0] ------- [2:254 2:255 32 0] 
r 44.453995831 _1_ RTR  --- 1566500024 diffusion 0 [0 ffffffff 2 800] ------- [2:255 -1:255 32 0] 
r 44.453996831 _1_ AGT  --- 1225933913 diffusion 0 [0 0 0 0] ------- [1:255 1:254 32 0] 
s 44.565997831 _1_ AGT  --- 528599292 diffusion 0 [0 0 0 0] ------- [1:254 1:255 32 0] 
r 44.565997831 _1_ RTR  --- 528599292 diffusion 0 [0 0 0 0] ------- [1:254 1:255 32 0] 
r 44.566770659 _0_ RTR  --- 1566500024 diffusion 0 [0 ffffffff 1 800] ------- [1:255 -1:255 32 0] 
r 44.566770663 _2_ RTR  --- 1566500024 diffusion 0 [0 ffffffff 1 800] ------- [1:255 -1:255 32 0] 
r 44.566771659 _0_ AGT  --- 2045655615 diffusion 0 [0 0 0 0] ------- [0:255 0:254 32 0] 
r 44.566771663 _2_ AGT  --- 580900458 diffusion 0 [0 0 0 0] ------- [2:255 2:254 32 0] 
s 44.679772659 _0_ AGT  --- 1190071913 diffusion 0 [0 0 0 0] ------- [0:254 0:255 32 0] 
r 44.679772659 _0_ RTR  --- 1190071913 diffusion 0 [0 0 0 0] ------- [0:254 0:255 32 0] 
r 44.680725486 _1_ RTR  --- 1566500024 diffusion 0 [0 ffffffff 0 800] ------- [0:255 -1:255 32 0] 
r 44.680726486 _1_ AGT  --- 1225933914 diffusion 0 [0 0 0 0] ------- [1:255 1:254 32 0] 
s 45.123001000 _0_ AGT  --- 1190071914 diffusion 0 [0 0 0 0] ------- [0:254 0:255 32 0] 
r 45.123001000 _0_ RTR  --- 1190071914 diffusion 0 [0 0 0 0] ------- [0:254 0:255 32 0] 
r 45.123002000 _0_ AGT  --- 2045655616 diffusion 0 [0 0 0 0] ------- [0:255 0:254 32 0] 
s 45.123003000 _0_ AGT  --- 1190071915 diffusion 0 [0 0 0 0] ------- [0:254 0:255 32 0] 
r 45.123003000 _0_ RTR  --- 1190071915 diffusion 0 [0 0 0 0] ------- [0:254 0:255 32 0] 
r 45.124765482 _1_ RTR  --- 1190071914 diffusion 0 [14a 1 0 800] ------- [0:255 1:255 32 1] 
r 45.124766482 _1_ AGT  --- 1225933915 diffusion 0 [0 0 0 0] ------- [1:255 1:254 32 0] 
s 45.124767482 _1_ AGT  --- 528599293 diffusion 0 [0 0 0 0] ------- [1:254 1:255 32 0] 
r 45.124767482 _1_ RTR  --- 528599293 diffusion 0 [0 0 0 0] ------- [1:254 1:255 32 0] 
r 45.126667976 _2_ RTR  --- 1190071914 diffusion 0 [14a 2 1 800] ------- [1:255 2:255 32 2] 
r 45.126668976 _2_ AGT  --- 580900459 diffusion 0 [0 0 0 0] ------- [2:255 2:254 32 0] 
s 45.126669976 _2_ AGT  --- 1566500026 diffusion 0 [0 0 0 0] ------- [2:254 2:255 32 0] 
r 45.126669976 _2_ RTR  --- 1566500026 diffusion 0 [0 0 0 0] ------- [2:254 2:255 32 0] 
r 45.126670976 _2_ AGT  --- 1190071914 diffusion 0 [0 0 0 0] ------- [2:255 2:254 32 0] 
s 49.605001000 _0_ AGT  --- 1190071916 diffusion 0 [0 0 0 0] ------- [0:254 0:255 32 0] 
r 49.605001000 _0_ RTR  --- 1190071916 diffusion 0 [0 0 0 0] ------- [0:254 0:255 32 0] 
r 49.605002000 _0_ AGT  --- 2045655617 diffusion 0 [0 0 0 0] ------- [0:255 0:254 32 0] 
s 50.123001000 _0_ AGT  --- 1190071917 diffusion 0 [0 0 0 0] ------- [0:254 0:255 32 0] 
r 50.123001000 _0_ RTR  --- 1190071917 diffusion 0 [0 0 0 0] ------- [0:254 0:255 32 0] 
r 50.123002000 _0_ AGT  --- 2045655618 diffusion 0 [0 0 0 0] ------- [0:255 0:254 32 0] 
s 50.123003000 _0_ AGT  --- 1190071918 diffusion 0 [0 0 0 0] ------- [0:254 0:255 32 0] 
r 50.123003000 _0_ RTR  --- 1190071918 diffusion 0 [0 0 0 0] ------- [0:254 0:255 32 0] 
r 50.124305482 _1_ RTR  --- 1190071917 diffusion 0 [14a 1 0 800] ------- [0:255 1:255 32 1] 
r 50.124306482 _1_ AGT  --- 1225933916 diffusion 0 [0 0 0 0] ------- [1:255 1:254 32 0] 
s 50.124307482 _1_ AGT  --- 528599294 diffusion 0 [0 0 0 0] ------- [1:254 1:255 32 0] 
r 50.124307482 _1_ RTR  --- 528599294 diffusion 0 [0 0 0 0] ------- [1:254 1:255 32 0] 
r 50.125827976 _2_ RTR  --- 1190071917 diffusion 0 [14a 2 1 800] ------- [1:255 2:255 32 2] 
r 50.125828976 _2_ AGT  --- 580900460 diffusion 0 [0 0 0 0] ------- [2:255 2:254 32 0] 
s 50.125829976 _2_ AGT  --- 1566500027 diffusion 0 [0 0 0 0] ------- [2:254 2:255 32 0] 
r 50.125829976 _2_ RTR  --- 1566500027 diffusion 0 [0 0 0 0] ------- [2:254 2:255 32 0] 
r 50.125830976 _2_ AGT  --- 1190071917 diffusion 0 [0 0 0 0] ------- [2:255 2:254 32 0] 
s 55.123001000 _0_ AGT  --- 1190071919 diffusion 0 [0 0 0 0] ------- [0:254 0:255 32 0] 
r 55.123001000 _0_ RTR  --- 1190071919 diffusion 0 [0 0 0 0] ------- [0:254 0:255 32 0] 
r 55.123002000 _0_ AGT  --- 2045655619 diffusion 0 [0 0 0 0] ------- [0:255 0:254 32 0] 
s 55.123003000 _0_ AGT  --- 1190071920 diffusion 0 [0 0 0 0] ------- [0:254 0:255 32 0] 
r 55.123003000 _0_ RTR  --- 1190071920 diffusion 0 [0 0 0 0] ------- [0:254 0:255 32 0] 
r 55.124745482 _1_ RTR  --- 1190071919 diffusion 0 [14a 1 0 800] ------- [0:255 1:255 32 1] 
r 55.124746482 _1_ AGT  --- 1225933917 diffusion 0 [0 0 0 0] ------- [1:255 1:254 32 0] 
s 55.124747482 _1_ AGT  --- 528599295 diffusion 0 [0 0 0 0] ------- [1:254 1:255 32 0] 
r 55.124747482 _1_ RTR  --- 528599295 diffusion 0 [0 0 0 0] ------- [1:254 1:255 32 0] 
r 55.126267976 _2_ RTR  --- 1190071919 diffusion 0 [14a 2 1 800] ------- [1:255 2:255 32 2] 
r 55.126268976 _2_ AGT  --- 580900461 diffusion 0 [0 0 0 0] ------- [2:255 2:254 32 0] 
s 55.126269976 _2_ AGT  --- 1566500028 diffusion 0 [0 0 0 0] ------- [2:254 2:255 32 0] 
r 55.126269976 _2_ RTR  --- 1566500028 diffusion 0 [0 0 0 0] ------- [2:254 2:255 32 0] 
r 55.126270976 _2_ AGT  --- 1190071919 diffusion 0 [0 0 0 0] ------- [2:255 2:254 32 0] 
s 60.000001000 _0_ AGT  --- 1190071921 diffusion 0 [0 0 0 0] ------- [0:254 0:255 32 0] 
r 60.000001000 _0_ RTR  --- 1190071921 diffusion 0 [0 0 0 0] ------- [0:254 0:255 32 0] 
s 60.000001000 _1_ AGT  --- 528599296 diffusion 0 [0 0 0 0] ------- [1:254 1:255 32 0] 
r 60.000001000 _1_ RTR  --- 528599296 diffusion 0 [0 0 0 0] ------- [1:254 1:255 32 0] 
s 60.000001000 _2_ AGT  --- 1566500029 diffusion 0 [0 0 0 0] ------- [2:254 2:255 32 0] 
r 60.000001000 _2_ RTR  --- 1566500029 diffusion 0 [0 0 0 0] ------- [2:254 2:255 32 0] 
s 60.123001000 _0_ AGT  --- 1190071922 diffusion 0 [0 0 0 0] ------- [0:254 0:255 32 0] 
r 60.123001000 _0_ RTR  --- 1190071922 diffusion 0 [0 0 0 0] ------- [0:254 0:255 32 0] 
r 60.123002000 _0_ AGT  --- 2045655620 diffusion 0 [0 0 0 0] ------- [0:255 0:254 32 0] 
s 60.123003000 _0_ AGT  --- 1190071923 diffusion 0 [0 0 0 0] ------- [0:254 0:255 32 0] 
r 60.123003000 _0_ RTR  --- 1190071923 diffusion 0 [0 0 0 0] ------- [0:254 0:255 32 0] 
r 60.124285482 _1_ RTR  --- 1190071922 diffusion 0 [14a 1 0 800] ------- [0:255 1:255 32 1] 
r 60.124286482 _1_ AGT  --- 1225933918 diffusion 0 [0 0 0 0] ------- [1:255 1:254 32 0] 
s 60.124287482 _1_ AGT  --- 528599297 diffusion 0 [0 0 0 0] ------- [1:254 1:255 32 0] 
r 60.124287482 _1_ RTR  --- 528599297 diffusion 0 [0 0 0 0] ------- [1:254 1:255 32 0] 
r 60.126307976 _2_ RTR  --- 1190071922 diffusion 0 [14a 2 1 800] ------- [1:255 2:255 32 2] 
r 60.126308976 _2_ AGT  --- 580900462 diffusion 0 [0 0 0 0] ------- [2:255 2:254 32 0] 
s 60.126309976 _2_ AGT  --- 1566500030 diffusion 0 [0 0 0 0] ------- [2:254 2:255 32 0] 
r 60.126309976 _2_ RTR  --- 1566500030 diffusion 0 [0 0 0 0] ------- [2:254 2:255 32 0] 
r 60.126310976 _2_ AGT  --- 1190071922 diffusion 0 [0 0 0 0] ------- [2:255 2:254 32 0] 
s 65.123001000 _0_ AGT  --- 1190071924 diffusion 0 [0 0 0 0] ------- [0:254 0:255 32 0] 
r 65.123001000 _0_ RTR  --- 1190071924 diffusion 0 [0 0 0 0] ------- [0:254 0:255 32 0] 
r 65.123002000 _0_ AGT  --- 2045655621 diffusion 0 [0 0 0 0] ------- [0:255 0:254 32 0] 
s 65.123003000 _0_ AGT  --- 1190071925 diffusion 0 [0 0 0 0] ------- [0:254 0:255 32 0] 
r 65.123003000 _0_ RTR  --- 1190071925 diffusion 0 [0 0 0 0] ------- [0:254 0:255 32 0] 
r 65.124545482 _1_ RTR  --- 1190071924 diffusion 0 [14a 1 0 800] ------- [0:255 1:255 32 1] 
r 65.124546482 _1_ AGT  --- 1225933919 diffusion 0 [0 0 0 0] ------- [1:255 1:254 32 0] 
s 65.124547482 _1_ AGT  --- 528599298 diffusion 0 [0 0 0 0] ------- [1:254 1:255 32 0] 
r 65.124547482 _1_ RTR  --- 528599298 diffusion 0 [0 0 0 0] ------- [1:254 1:255 32 0] 
s 65.124547482 _1_ AGT  --- 528599299 diffusion 0 [0 0 0 0] ------- [1:254 1:255 32 0] 
r 65.124547482 _1_ RTR  --- 528599299 diffusion 0 [0 0 0 0] ------- [1:254 1:255 32 0] 
r 65.126207976 _2_ RTR  --- 1190071924 diffusion 0 [14a 2 1 800] ------- [1:255 2:255 32 2] 
r 65.126208976 _2_ AGT  --- 580900463 diffusion 0 [0 0 0 0] ------- [2:255 2:254 32 0] 
s 65.126209976 _2_ AGT  --- 1566500031 diffusion 0 [0 0 0 0] ------- [2:254 2:255 32 0] 
r 65.126209976 _2_ RTR  --- 1566500031 diffusion 0 [0 0 0 0] ------- [2:254 2:255 32 0] 
s 65.126209976 _2_ AGT  --- 1566500032 diffusion 0 [0 0 0 0] ------- [2:254 2:255 32 0] 
r 65.126209976 _2_ RTR  --- 1566500032 diffusion 0 [0 0 0 0] ------- [2:254 2:255 32 0] 
r 65.126210976 _2_ AGT  --- 1190071924 diffusion 0 [0 0 0 0] ------- [2:255 2:254 32 0] 
r 65.127791290 _0_ RTR  --- 1190071924 diffusion 0 [14a 0 1 800] ------- [1:255 0:255 32 0] 
r 65.127792290 _0_ AGT  --- 2045655622 diffusion 0 [0 0 0 0] ------- [0:255 0:254 32 0] 
r 65.130155434 _1_ RTR  --- 1190071924 diffusion 0 [14a 1 2 800] ------- [2:255 1:255 32 1] 
r 65.130156434 _1_ AGT  --- 1225933920 diffusion 0 [0 0 0 0] ------- [1:255 1:254 32 0] 
s 65.634209976 _2_ AGT  --- 1566500033 diffusion 0 [0 0 0 0] ------- [2:254 2:255 32 0] 
r 65.634209976 _2_ RTR  --- 1566500033 diffusion 0 [0 0 0 0] ------- [2:254 2:255 32 0] 
r 65.635712471 _1_ RTR  --- 1709957114 diffusion 0 [14a 1 2 800] ------- [2:255 1:255 32 1] 
r 65.635713471 _1_ AGT  --- 1225933921 diffusion 0 [0 0 0 0] ------- [1:255 1:254 32 0] 
s 65.635714471 _1_ AGT  --- 528599300 diffusion 0 [0 0 0 0] ------- [1:254 1:255 32 0] 
r 65.635714471 _1_ RTR  --- 528599300 diffusion 0 [0 0 0 0] ------- [1:254 1:255 32 0] 
r 65.637414952 _0_ RTR  --- 1709957114 diffusion 0 [14a 0 1 800] ------- [1:255 0:255 32 0] 
r 65.637415952 _0_ AGT  --- 2045655623 diffusion 0 [0 0 0 0] ------- [0:255 0:254 32 0] 
s 70.123001000 _0_ AGT  --- 1190071926 diffusion 0 [0 0 0 0] ------- [0:254 0:255 32 0] 
r 70.123001000 _0_ RTR  --- 1190071926 diffusion 0 [0 0 0 0] ------- [0:254 0:255 32 0] 
r 70.123002000 _0_ AGT  --- 2045655624 diffusion 0 [0 0 0 0] ------- [0:255 0:254 32 0] 
s 70.123003000 _0_ AGT  --- 1190071927 diffusion 0 [0 0 0 0] ------- [0:254 0:255 32 0] 
r 70.123003000 _0_ RTR  --- 1190071927 diffusion 0 [0 0 0 0] ------- [0:254 0:255 32 0] 
r 70.124665482 _1_ RTR  --- 1190071926 diffusion 0 [14a 1 0 800] ------- [0:255 1:255 32 1] 
r 70.124666482 _1_ AGT  --- 1225933922 diffusion 0 [0 0 0 0] ------- [1:255 1:254 32 0] 
s 70.124667482 _1_ AGT  --- 528599301 diffusion 0 [0 0 0 0] ------- [1:254 1:255 32 0] 
r 70.124667482 _1_ RTR  --- 528599301 diffusion 0 [0 0 0 0] ------- [1:254 1:255 32 0] 
r 70.126687976 _2_ RTR  --- 1190071926 diffusion 0 [14a 2 1 800] ------- [1:255 2:255 32 2] 
r 70.126688976 _2_ AGT  --- 580900464 diffusion 0 [0 0 0 0] ------- [2:255 2:254 32 0] 
s 70.126689976 _2_ AGT  --- 1566500034 diffusion 0 [0 0 0 0] ------- [2:254 2:255 32 0] 
r 70.126689976 _2_ RTR  --- 1566500034 diffusion 0 [0 0 0 0] ------- [2:254 2:255 32 0] 
r 70.126690976 _2_ AGT  --- 1190071926 diffusion 0 [0 0 0 0] ------- [2:255 2:254 32 0] 
s 75.123001000 _0_ AGT  --- 1190071928 diffusion 0 [0 0 0 0] ------- [0:254 0:255 32 0] 
r 75.123001000 _0_ RTR  --- 1190071928 diffusion 0 [0 0 0 0] ------- [0:254 0:255 32 0] 
r 75.123002000 _0_ AGT  --- 2045655625 diffusion 0 [0 0 0 0] ------- [0:255 0:254 32 0] 
s 75.123003000 _0_ AGT  --- 1190071929 diffusion 0 [0 0 0 0] ------- [0:254 0:255 32 0] 
r 75.123003000 _0_ RTR  --- 1190071929 diffusion 0 [0 0 0 0] ------- [0:254 0:255 32 0] 
r 75.124745482 _1_ RTR  --- 1190071928 diffusion 0 [14a 1 0 800] ------- [0:255 1:255 32 1] 
r 75.124746482 _1_ AGT  --- 1225933923 diffusion 0 [0 0 0 0] ------- [1:255 1:254 32 0] 
s 75.124747482 _1_ AGT  --- 528599302 diffusion 0 [0 0 0 0] ------- [1:254 1:255 32 0] 
r 75.124747482 _1_ RTR  --- 528599302 diffusion 0 [0 0 0 0] ------- [1:254 1:255 32 0] 
r 75.126267976 _2_ RTR  --- 1190071928 diffusion 0 [14a 2 1 800] ------- [1:255 2:255 32 2] 
r 75.126268976 _2_ AGT  --- 580900465 diffusion 0 [0 0 0 0] ------- [2:255 2:254 32 0] 
s 75.126269976 _2_ AGT  --- 1566500035 diffusion 0 [0 0 0 0] ------- [2:254 2:255 32 0] 
r 75.126269976 _2_ RTR  --- 1566500035 diffusion 0 [0 0 0 0] ------- [2:254 2:255 32 0] 
r 75.126270976 _2_ AGT  --- 1190071928 diffusion 0 [0 0 0 0] ------- [2:255 2:254 32 0] 
s 78.742001000 _0_ AGT  --- 1190071930 diffusion 0 [0 0 0 0] ------- [0:254 0:255 32 0] 
r 78.742001000 _0_ RTR  --- 1190071930 diffusion 0 [0 0 0 0] ------- [0:254 0:255 32 0] 
r 78.742002000 _0_ AGT  --- 2045655626 diffusion 0 [0 0 0 0] ------- [0:255 0:254 32 0] 
s 80.000001000 _0_ AGT  --- 1190071931 diffusion 0 [0 0 0 0] ------- [0:254 0:255 32 0] 
r 80.000001000 _0_ RTR  --- 1190071931 diffusion 0 [0 0 0 0] ------- [0:254 0:255 32 0] 
s 80.000001000 _1_ AGT  --- 528599303 diffusion 0 [0 0 0 0] ------- [1:254 1:255 32 0] 