s 0.000001000 _0_ AGT  --- 1190071889 diffusion 0 [0 0 0 0] ------- [0:254 0:255 32 0] 
r 0.000001000 _0_ RTR  --- 1190071889 diffusion 0 [0 0 0 0] ------- [0:254 0:255 32 0] 
s 0.000001000 _1_ AGT  --- 528599277 diffusion 0 [0 0 0 0] ------- [1:254 1:255 32 0] 
r 0.000001000 _1_ RTR  --- 528599277 diffusion 0 [0 0 0 0] ------- [1:254 1:255 32 0] 
s 0.000001000 _2_ AGT  --- 1566500007 diffusion 0 [0 0 0 0] ------- [2:254 2:255 32 0] 
r 0.000001000 _2_ RTR  --- 1566500007 diffusion 0 [0 0 0 0] ------- [2:254 2:255 32 0] 
s 0.133001000 _0_ AGT  --- 1190071890 diffusion 0 [0 0 0 0] ------- [0:254 0:255 32 0] 
r 0.133001000 _0_ RTR  --- 1190071890 diffusion 0 [0 0 0 0] ------- [0:254 0:255 32 0] 
r 0.133002000 _0_ AGT  --- 2045655601 diffusion 0 [0 0 0 0] ------- [0:255 0:254 32 0] 
s 1.466001000 _2_ AGT  --- 1566500008 diffusion 0 [0 0 0 0] ------- [2:254 2:255 32 0] 
r 1.466001000 _2_ RTR  --- 1566500008 diffusion 0 [0 0 0 0] ------- [2:254 2:255 32 0] 
r 1.466002000 _2_ AGT  --- 580900445 diffusion 0 [0 0 0 0] ------- [2:255 2:254 32 0] 
s 1.545003000 _2_ AGT  --- 1566500009 diffusion 0 [0 0 0 0] ------- [2:254 2:255 32 0] 
r 1.545003000 _2_ RTR  --- 1566500009 diffusion 0 [0 0 0 0] ------- [2:254 2:255 32 0] 
r 1.545699831 _1_ RTR  --- 1566500008 diffusion 0 [0 ffffffff 2 800] ------- [2:255 -1:255 32 0] 
r 1.545700831 _1_ AGT  --- 1225933899 diffusion 0 [0 0 0 0] ------- [1:255 1:254 32 0] 
s 1.635701831 _1_ AGT  --- 528599278 diffusion 0 [0 0 0 0] ------- [1:254 1:255 32 0] 
r 1.635701831 _1_ RTR  --- 528599278 diffusion 0 [0 0 0 0] ------- [1:254 1:255 32 0] 
r 1.636738659 _0_ RTR  --- 1566500008 diffusion 0 [0 ffffffff 1 800] ------- [1:255 -1:255 32 0] 
r 1.636738663 _2_ RTR  --- 1566500008 diffusion 0 [0 ffffffff 1 800] ------- [1:255 -1:255 32 0] 
r 1.636739659 _0_ AGT  --- 2045655602 diffusion 0 [0 0 0 0] ------- [0:255 0:254 32 0] 
r 1.636739663 _2_ AGT  --- 580900446 diffusion 0 [0 0 0 0] ------- [2:255 2:254 32 0] 
s 1.636740659 _0_ AGT  --- 1190071891 diffusion 0 [0 0 0 0] ------- [0:254 0:255 32 0] 
r 1.636740659 _0_ RTR  --- 1190071891 diffusion 0 [0 0 0 0] ------- [0:254 0:255 32 0] 
r 1.636741659 _0_ AGT  --- 0 diffusion 0 [0 0 0 0] ------- [0:255 0:254 32 0] 
s 1.728740659 _0_ AGT  --- 1190071892 diffusion 0 [0 0 0 0] ------- [0:254 0:255 32 0] 
r 1.728740659 _0_ RTR  --- 1190071892 diffusion 0 [0 0 0 0] ------- [0:254 0:255 32 0] 
r 1.729637486 _1_ RTR  --- 1566500008 diffusion 0 [0 ffffffff 0 800] ------- [0:255 -1:255 32 0] 
r 1.729638486 _1_ AGT  --- 1225933900 diffusion 0 [0 0 0 0] ------- [1:255 1:254 32 0] 
s 5.123001000 _0_ AGT  --- 1190071893 diffusion 0 [0 0 0 0] ------- [0:254 0:255 32 0] 
r 5.123001000 _0_ RTR  --- 1190071893 diffusion 0 [0 0 0 0] ------- [0:254 0:255 32 0] 
r 5.123002000 _0_ AGT  --- 2045655603 diffusion 0 [0 0 0 0] ------- [0:255 0:254 32 0] 
s 5.123003000 _0_ AGT  --- 1190071894 diffusion 0 [0 0 0 0] ------- [0:254 0:255 32 0] 
r 5.123003000 _0_ RTR  --- 1190071894 diffusion 0 [0 0 0 0] ------- [0:254 0:255 32 0] 
r 5.127175791 _1_ RTR  --- 1190071893 diffusion 0 [13a 1 0 800] ------- [0:255 1:255 32 1] 
r 5.127176791 _1_ AGT  --- 1225933901 diffusion 0 [0 0 0 0] ------- [1:255 1:254 32 0] 
s 5.127177791 _1_ AGT  --- 528599279 diffusion 0 [0 0 0 0] ------- [1:254 1:255 32 0] 
r 5.127177791 _1_ RTR  --- 528599279 diffusion 0 [0 0 0 0] ------- [1:254 1:255 32 0] 
s 5.127177791 _1_ AGT  --- 528599280 diffusion 0 [0 0 0 0] ------- [1:254 1:255 32 0] 
r 5.127177791 _1_ RTR  --- 528599280 diffusion 0 [0 0 0 0] ------- [1:254 1:255 32 0] 
r 5.129584273 _0_ RTR  --- 1190071893 diffusion 0 [13a 0 1 800] ------- [1:255 0:255 32 0] 
r 5.129585273 _0_ AGT  --- 2045655604 diffusion 0 [0 0 0 0] ------- [0:255 0:254 32 0] 
r 5.133710912 _2_ RTR  --- 1190071893 diffusion 0 [13a 2 1 800] ------- [1:255 2:255 32 2] 
r 5.133711912 _2_ AGT  --- 580900447 diffusion 0 [0 0 0 0] ------- [2:255 2:254 32 0] 
s 5.133712912 _2_ AGT  --- 1566500010 diffusion 0 [0 0 0 0] ------- [2:254 2:255 32 0] 
r 5.133712912 _2_ RTR  --- 1566500010 diffusion 0 [0 0 0 0] ------- [2:254 2:255 32 0] 
s 5.133712912 _2_ AGT  --- 1566500011 diffusion 0 [0 0 0 0] ------- [2:254 2:255 32 0] 
r 5.133712912 _2_ RTR  --- 1566500011 diffusion 0 [0 0 0 0] ------- [2:254 2:255 32 0] 
r 5.133713912 _2_ AGT  --- 1190071893 diffusion 0 [0 0 0 0] ------- [2:255 2:254 32 0] 
r 5.135549406 _1_ RTR  --- 1190071893 diffusion 0 [13a 1 2 800] ------- [2:255 1:255 32 1] 
r 5.135550406 _1_ AGT  --- 1225933902 diffusion 0 [0 0 0 0] ------- [1:255 1:254 32 0] 
s 5.806712912 _2_ AGT  --- 1566500012 diffusion 0 [0 0 0 0] ------- [2:254 2:255 32 0] 
r 5.806712912 _2_ RTR  --- 1566500012 diffusion 0 [0 0 0 0] ------- [2:254 2:255 32 0] 
r 5.808387406 _1_ RTR  --- 1709957113 diffusion 0 [13a 1 2 800] ------- [2:255 1:255 32 1] 
r 5.808388406 _1_ AGT  --- 1225933903 diffusion 0 [0 0 0 0] ------- [1:255 1:254 32 0] 
s 5.808389406 _1_ AGT  --- 528599281 diffusion 0 [0 0 0 0] ------- [1:254 1:255 32 0] 
r 5.808389406 _1_ RTR  --- 528599281 diffusion 0 [0 0 0 0] ------- [1:254 1:255 32 0] 
r 5.810185888 _0_ RTR  --- 1709957113 diffusion 0 [13a 0 1 800] ------- [1:255 0:255 32 0] 
r 5.810186888 _0_ AGT  --- 2045655605 diffusion 0 [0 0 0 0] ------- [0:255 0:254 32 0] 
s 10.123001000 _0_ AGT  --- 1190071895 diffusion 0 [0 0 0 0] ------- [0:254 0:255 32 0] 
r 10.123001000 _0_ RTR  --- 1190071895 diffusion 0 [0 0 0 0] ------- [0:254 0:255 32 0] 
r 10.123002000 _0_ AGT  --- 2045655606 diffusion 0 [0 0 0 0] ------- [0:255 0:254 32 0] 
s 10.123003000 _0_ AGT  --- 1190071896 diffusion 0 [0 0 0 0] ------- [0:254 0:255 32 0] 
r 10.123003000 _0_ RTR  --- 1190071896 diffusion 0 [0 0 0 0] ------- [0:254 0:255 32 0] 
r 10.124637482 _1_ RTR  --- 1190071895 diffusion 0 [13a 1 0 800] ------- [0:255 1:255 32 1] 
r 10.124638482 _1_ AGT  --- 1225933904 diffusion 0 [0 0 0 0] ------- [1:255 1:254 32 0] 
s 10.124639482 _1_ AGT  --- 528599282 diffusion 0 [0 0 0 0] ------- [1:254 1:255 32 0] 
r 10.124639482 _1_ RTR  --- 528599282 diffusion 0 [0 0 0 0] ------- [1:254 1:255 32 0] 
r 10.126095976 _2_ RTR  --- 1190071895 diffusion 0 [13a 2 1 800] ------- [1:255 2:255 32 2] 
r 10.126096976 _2_ AGT  --- 580900448 diffusion 0 [0 0 0 0] ------- [2:255 2:254 32 0] 
s 10.126097976 _2_ AGT  --- 1566500013 diffusion 0 [0 0 0 0] ------- [2:254 2:255 32 0] 
r 10.126097976 _2_ RTR  --- 1566500013 diffusion 0 [0 0 0 0] ------- [2:254 2:255 32 0] 
r 10.126098976 _2_ AGT  --- 1190071895 diffusion 0 [0 0 0 0] ------- [2:255 2:254 32 0] 
s 15.123001000 _0_ AGT  --- 1190071897 diffusion 0 [0 0 0 0] ------- [0:254 0:255 32 0] 
r 15.123001000 _0_ RTR  --- 1190071897 diffusion 0 [0 0 0 0] ------- [0:254 0:255 32 0] 
r 15.123002000 _0_ AGT  --- 2045655607 diffusion 0 [0 0 0 0] ------- [0:255 0:254 32 0] 
s 15.123003000 _0_ AGT  --- 1190071898 diffusion 0 [0 0 0 0] ------- [0:254 0:255 32 0] 
r 15.123003000 _0_ RTR  --- 1190071898 diffusion 0 [0 0 0 0] ------- [0:254 0:255 32 0] 
r 15.124257482 _1_ RTR  --- 1190071897 diffusion 0 [13a 1 0 800] ------- [0:255 1:255 32 1] 
r 15.124258482 _1_ AGT  --- 1225933905 diffusion 0 [0 0 0 0] ------- [1:255 1:254 32 0] 
s 15.124259482 _1_ AGT  --- 528599283 diffusion 0 [0 0 0 0] ------- [1:254 1:255 32 0] 
r 15.124259482 _1_ RTR  --- 528599283 diffusion 0 [0 0 0 0] ------- [1:254 1:255 32 0] 
r 15.126235976 _2_ RTR  --- 1190071897 diffusion 0 [13a 2 1 800] ------- [1:255 2:255 32 2] 
r 15.126236976 _2_ AGT  --- 580900449 diffusion 0 [0 0 0 0] ------- [2:255 2:254 32 0] 
s 15.126237976 _2_ AGT  --- 1566500014 diffusion 0 [0 0 0 0] ------- [2:254 2:255 32 0] 
r 15.126237976 _2_ RTR  --- 1566500014 diffusion 0 [0 0 0 0] ------- [2:254 2:255 32 0] 
r 15.126238976 _2_ AGT  --- 1190071897 diffusion 0 [0 0 0 0] ------- [2:255 2:254 32 0] 
s 20.000001000 _0_ AGT  --- 1190071899 diffusion 0 [0 0 0 0] ------- [0:254 0:255 32 0] 
r 20.000001000 _0_ RTR  --- 1190071899 diffusion 0 [0 0 0 0] ------- [0:254 0:255 32 0] 
s 20.000001000 _1_ AGT  --- 528599284 diffusion 0 [0 0 0 0] ------- [1:254 1:255 32 0] 
r 20.000001000 _1_ RTR  --- 528599284 diffusion 0 [0 0 0 0] ------- [1:254 1:255 32 0] 
s 20.000001000 _2_ AGT  --- 1566500015 diffusion 0 [0 0 0 0] ------- [2:254 2:255 32 0] 
r 20.000001000 _2_ RTR  --- 1566500015 diffusion 0 [0 0 0 0] ------- [2:254 2:255 32 0] 
s 20.123001000 _0_ AGT  --- 1190071900 diffusion 0 [0 0 0 0] ------- [0:254 0:255 32 0] 
r 20.123001000 _0_ RTR  --- 1190071900 diffusion 0 [0 0 0 0] ------- [0:254 0:255 32 0] 
r 20.123002000 _0_ AGT  --- 2045655608 diffusion 0 [0 0 0 0] ------- [0:255 0:254 32 0] 
s 20.123003000 _0_ AGT  --- 1190071901 diffusion 0 [0 0 0 0] ------- [0:254 0:255 32 0] 
r 20.123003000 _0_ RTR  --- 1190071901 diffusion 0 [0 0 0 0] ------- [0:254 0:255 32 0] 
r 20.124597482 _1_ RTR  --- 1190071900 diffusion 0 [13a 1 0 800] ------- [0:255 1:255 32 1] 
r 20.124598482 _1_ AGT  --- 1225933906 diffusion 0 [0 0 0 0] ------- [1:255 1:254 32 0] 
s 20.124599482 _1_ AGT  --- 528599285 diffusion 0 [0 0 0 0] ------- [1:254 1:255 32 0] 
r 20.124599482 _1_ RTR  --- 528599285 diffusion 0 [0 0 0 0] ------- [1:254 1:255 32 0] 
r 20.126175976 _2_ RTR  --- 1190071900 diffusion 0 [13a 2 1 800] ------- [1:255 2:255 32 2] 
r 20.126176976 _2_ AGT  --- 580900450 diffusion 0 [0 0 0 0] ------- [2:255 2:254 32 0] 
s 20.126177976 _2_ AGT  --- 1566500016 diffusion 0 [0 0 0 0] ------- [2:254 2:255 32 0] 
r 20.126177976 _2_ RTR  --- 1566500016 diffusion 0 [0 0 0 0] ------- [2:254 2:255 32 0] 
r 20.126178976 _2_ AGT  --- 1190071900 diffusion 0 [0 0 0 0] ------- [2:255 2:254 32 0] 
s 25.123001000 _0_ AGT  --- 1190071902 diffusion 0 [0 0 0 0] ------- [0:254 0:255 32 0] 
r 25.123001000 _0_ RTR  --- 1190071902 diffusion 0 [0 0 0 0] ------- [0:254 0:255 32 0] 
r 25.123002000 _0_ AGT  --- 2045655609 diffusion 0 [0 0 0 0] ------- [0:255 0:254 32 0] 
s 25.123003000 _0_ AGT  --- 1190071903 diffusion 0 [0 0 0 0] ------- [0:254 0:255 32 0] 
r 25.123003000 _0_ RTR  --- 1190071903 diffusion 0 [0 0 0 0] ------- [0:254 0:255 32 0] 
r 25.124517482 _1_ RTR  --- 1190071902 diffusion 0 [13a 1 0 800] ------- [0:255 1:255 32 1] 
r 25.124518482 _1_ AGT  --- 1225933907 diffusion 0 [0 0 0 0] ------- [1:255 1:254 32 0] 
s 25.124519482 _1_ AGT  --- 528599286 diffusion 0 [0 0 0 0] ------- [1:254 1:255 32 0] 
r 25.124519482 _1_ RTR  --- 528599286 diffusion 0 [0 0 0 0] ------- [1:254 1:255 32 0] 
r 25.126375976 _2_ RTR  --- 1190071902 diffusion 0 [13a 2 1 800] ------- [1:255 2:255 32 2] 
r 25.126376976 _2_ AGT  --- 580900451 diffusion 0 [0 0 0 0] ------- [2:255 2:254 32 0] 
s 25.126377976 _2_ AGT  --- 1566500017 diffusion 0 [0 0 0 0] ------- [2:254 2:255 32 0] 
r 25.126377976 _2_ RTR  --- 1566500017 diffusion 0 [0 0 0 0] ------- [2:254 2:255 32 0] 
r 25.126378976 _2_ AGT  --- 1190071902 diffusion 0 [0 0 0 0] ------- [2:255 2:254 32 0] 
s 25.448001000 _0_ AGT  --- 1190071904 diffusion 0 [0 0 0 0] ------- [0:254 0:255 32 0] 
r 25.448001000 _0_ RTR  --- 1190071904 diffusion 0 [0 0 0 0] ------- [0:254 0:255 32 0] 
r 25.448002000 _0_ AGT  --- 2045655610 diffusion 0 [0 0 0 0] ------- [0:255 0:254 32 0] 
s 30.123001000 _0_ AGT  --- 1190071905 diffusion 0 [0 0 0 0] ------- [0:254 0:255 32 0] 
r 30.123001000 _0_ RTR  --- 1190071905 diffusion 0 [0 0 0 0] ------- [0:254 0:255 32 0] 
r 30.123002000 _0_ AGT  --- 2045655611 diffusion 0 [0 0 0 0] ------- [0:255 0:254 32 0] 
s 30.123003000 _0_ AGT  --- 1190071906 diffusion 0 [0 0 0 0] ------- [0:254 0:255 32 0] 
r 30.123003000 _0_ RTR  --- 1190071906 diffusion 0 [0 0 0 0] ------- [0:254 0:255 32 0] 
r 30.124217482 _1_ RTR  --- 1190071905 diffusion 0 [13a 1 0 800] ------- [0:255 1:255 32 1] 
r 30.124218482 _1_ AGT  --- 1225933908 diffusion 0 [0 0 0 0] ------- [1:255 1:254 32 0] 
s 30.124219482 _1_ AGT  --- 528599287 diffusion 0 [0 0 0 0] ------- [1:254 1:255 32 0] 
r 30.124219482 _1_ RTR  --- 528599287 diffusion 0 [0 0 0 0] ------- [1:254 1:255 32 0] 
r 30.126235976 _2_ RTR  --- 1190071905 diffusion 0 [13a 2 1 800] ------- [1:255 2:255 32 2] 
r 30.126236976 _2_ AGT  --- 580900452 diffusion 0 [0 0 0 0] ------- [2:255 2:254 32 0] 
s 30.126237976 _2_ AGT  --- 1566500018 diffusion 0 [0 0 0 0] ------- [2:254 2:255 32 0] 
r 30.126237976 _2_ RTR  --- 1566500018 diffusion 0 [0 0 0 0] ------- [2:254 2:255 32 0] 
r 30.126238976 _2_ AGT  --- 1190071905 diffusion 0 [0 0 0 0] ------- [2:255 2:254 32 0] 
s 34.678001000 _2_ AGT  --- 1566500019 diffusion 0 [0 0 0 0] ------- [2:254 2:255 32 0] 
r 34.678001000 _2_ RTR  --- 1566500019 diffusion 0 [0 0 0 0] ------- [2:254 2:255 32 0] 
r 34.678002000 _2_ AGT  --- 580900453 diffusion 0 [0 0 0 0] ------- [2:255 2:254 32 0] 
s 34.791003000 _2_ AGT  --- 1566500020 diffusion 0 [0 0 0 0] ------- [2:254 2:255 32 0] 
r 34.791003000 _2_ RTR  --- 1566500020 diffusion 0 [0 0 0 0] ------- [2:254 2:255 32 0] 
r 34.791879831 _1_ RTR  --- 1566500019 diffusion 0 [0 ffffffff 2 800] ------- [2:255 -1:255 32 0] 
r 34.791880831 _1_ AGT  --- 1225933909 diffusion 0 [0 0 0 0] ------- [1:255 1:254 32 0] 
s 34.887881831 _1_ AGT  --- 528599288 diffusion 0 [0 0 0 0] ------- [1:254 1:255 32 0] 
r 34.887881831 _1_ RTR  --- 528599288 diffusion 0 [0 0 0 0] ------- [1:254 1:255 32 0] 
r 34.888598659 _0_ RTR  --- 1566500019 diffusion 0 [0 ffffffff 1 800] ------- [1:255 -1:255 32 0] 
r 34.888598663 _2_ RTR  --- 1566500019 diffusion 0 [0 ffffffff 1 800] ------- [1:255 -1:255 32 0] 
r 34.888599659 _0_ AGT  --- 2045655612 diffusion 0 [0 0 0 0] ------- [0:255 0:254 32 0] 
r 34.888599663 _2_ AGT  --- 580900454 diffusion 0 [0 0 0 0] ------- [2:255 2:254 32 0] 
s 34.988600659 _0_ AGT  --- 1190071907 diffusion 0 [0 0 0 0] ------- [0:254 0:255 32 0] 
r 34.988600659 _0_ RTR  --- 1190071907 diffusion 0 [0 0 0 0] ------- [0:254 0:255 32 0] 
r 34.989597486 _1_ RTR  --- 1566500019 diffusion 0 [0 ffffffff 0 800] ------- [0:255 -1:255 32 0] 
r 34.989598486 _1_ AGT  --- 1225933910 diffusion 0 [0 0 0 0] ------- [1:255 1:254 32 0] 
s 35.123001000 _0_ AGT  --- 1190071908 diffusion 0 [0 0 0 0] ------- [0:254 0:255 32 0] 
r 35.123001000 _0_ RTR  --- 1190071908 diffusion 0 [0 0 0 0] ------- [0:254 0:255 32 0] 
r 35.123002000 _0_ AGT  --- 2045655613 diffusion 0 [0 0 0 0] ------- [0:255 0:254 32 0] 
s 35.123003000 _0_ AGT  --- 1190071909 diffusion 0 [0 0 0 0] ------- [0:254 0:255 32 0] 
r 35.123003000 _0_ RTR  --- 1190071909 diffusion 0 [0 0 0 0] ------- [0:254 0:255 32 0] 
r 35.124317482 _1_ RTR  --- 1190071908 diffusion 0 [13a 1 0 800] ------- [0:255 1:255 32 1] 
r 35.124318482 _1_ AGT  --- 1225933911 diffusion 0 [0 0 0 0] ------- [1:255 1:254 32 0] 
s 35.124319482 _1_ AGT  --- 528599289 diffusion 0 [0 0 0 0] ------- [1:254 1:255 32 0] 
r 35.124319482 _1_ RTR  --- 528599289 diffusion 0 [0 0 0 0] ------- [1:254 1:255 32 0] 
r 35.125775976 _2_ RTR  --- 1190071908 diffusion 0 [13a 2 1 800] ------- [1:255 2:255 32 2] 
r 35.125776976 _2_ AGT  --- 580900455 diffusion 0 [0 0 0 0] ------- [2:255 2:254 32 0] 
s 35.125777976 _2_ AGT  --- 1566500021 diffusion 0 [0 0 0 0] ------- [2:254 2:255 32 0] 
r 35.125777976 _2_ RTR  --- 1566500021 diffusion 0 [0 0 0 0] ------- [2:254 2:255 32 0] 
r 35.125778976 _2_ AGT  --- 1190071908 diffusion 0 [0 0 0 0] ------- [2:255 2:254 32 0] 
s 40.000001000 _0_ AGT  --- 1190071910 diffusion 0 [0 0 0 0] ------- [0:254 0:255 32 0] 
r 40.000001000 _0_ RTR  --- 1190071910 diffusion 0 [0 0 0 0] ------- [0:254 0:255 32 0] 
s 40.000001000 _1_ AGT  --- 528599290 diffusion 0 [0 0 0 0] ------- [1:254 1:255 32 0] 
r 40.000001000 _1_ RTR  --- 528599290 diffusion 0 [0 0 0 0] ------- [1:254 1:255 32 0] 
s 40.000001000 _2_ AGT  --- 1566500022 diffusion 0 [0 0 0 0] ------- [2:254 2:255 32 0] 
r 40.000001000 _2_ RTR  --- 1566500022 diffusion 0 [0 0 0 0] ------- [2:254 2:255 32 0] 
s 40.123001000 _0_ AGT  --- 1190071911 diffusion 0 [0 0 0 0] ------- [0:254 0:255 32 0] 
r 40.123001000 _0_ RTR  --- 1190071911 diffusion 0 [0 0 0 0] ------- [0:254 0:255 32 0] 
r 40.123002000 _0_ AGT  --- 2045655614 diffusion 0 [0 0 0 0] ------- [0:255 0:254 32 0] 
s 40.123003000 _0_ AGT  --- 1190071912 diffusion 0 [0 0 0 0] ------- [0:254 0:255 32 0] 
r 40.123003000 _0_ RTR  --- 1190071912 diffusion 0 [0 0 0 0] ------- [0:254 0:255 32 0] 
r 40.124477482 _1_ RTR  --- 1190071911 diffusion 0 [13a 1 0 800] ------- [0:255 1:255 32 1] 
r 40.124478482 _1_ AGT  --- 1225933912 diffusion 0 [0 0 0 0] ------- [1:255 1:254 32 0] 
s 40.124479482 _1_ AGT  --- 528599291 diffusion 0 [0 0 0 0] ------- [1:254 1:255 32 0] 
r 40.124479482 _1_ RTR  --- 528599291 diffusion 0 [0 0 0 0] ------- [1:254 1:255 32 0] 
r 40.126395976 _2_ RTR  --- 1190071911 diffusion 0 [13a 2 1 800] ------- [1:255 2:255 32 2] 
r 40.126396976 _2_ AGT  --- 580900456 diffusion 0 [0 0 0 0] ------- [2:255 2:254 32 0] 
s 40.126397976 _2_ AGT  --- 1566500023 diffusion 0 [0 0 0 0] ------- [2:254 2:255 32 0] 
r 40.126397976 _2_ RTR  --- 1566500023 diffusion 0 [0 0 0 0] ------- [2:254 2:255 32 0] 
r 40.126398976 _2_ AGT  --- 1190071911 diffusion 0 [0 0 0 0] ------- [2:255 2:254 32 0] 
s 44.351001000 _2_ AGT  --- 1566500024 diffusion 0 [0 0 0 0] ------- [2:254 2:255 32 0] 
r 44.351001000 _2_ RTR  --- 1566500024 diffusion 0 [0 0 0 0] ------- [2:254 2:255 32 0] 
r 44.351002000 _2_ AGT  --- 580900457 diffusion 0 [0 0 0 0] ------- [2:255 2:254 32 0] 
s 44.453003000 _2_ AGT  --- 1566500025 diffusion 0 [0 0 0 0] ------- [2:254 2:255 32 0] 
r 44.453003000 _2_ RTR  --- 1566500025 diffusion 0 [0 0 0 0] ------- [2:254 2:255 32 0] 
r 44.453979831 _1_ RTR  --- 1566500024 diffusion 0 [0 ffffffff 2 800] ------- [2:255 -1:255 32 0] 
r 44.453980831 _1_ AGT  --- 1225933913 diffusion 0 [0 0 0 0] ------- [1:255 1:254 32 0] 
s 44.565981831 _1_ AGT  --- 528599292 diffusion 0 [0 0 0 0] ------- [1:254 1:255 32 0] 
r 44.565981831 _1_ RTR  --- 528599292 diffusion 0 [0 0 0 0] ------- [1:254 1:255 32 0] 
r 44.566738659 _0_ RTR  --- 1566500024 diffusion 0 [0 ffffffff 1 800] ------- [1:255 -1:255 32 0] 
r 44.566738663 _2_ RTR  --- 1566500024 diffusion 0 [0 ffffffff 1 800] ------- [1:255 -1:255 32 0] 
r 44.566739659 _0_ AGT  --- 2045655615 diffusion 0 [0 0 0 0] ------- [0:255 0:254 32 0] 
r 44.566739663 _2_ AGT  --- 580900458 diffusion 0 [0 0 0 0] ------- [2:255 2:254 32 0] 
s 44.679740659 _0_ AGT  --- 1190071913 diffusion 0 [0 0 0 0] ------- [0:254 0:255 32 0] 
r 44.679740659 _0_ RTR  --- 1190071913 diffusion 0 [0 0 0 0] ------- [0:254 0:255 32 0] 
r 44.680677486 _1_ RTR  --- 1566500024 diffusion 0 [0 ffffffff 0 800] ------- [0:255 -1:255 32 0] 
r 44.680678486 _1_ AGT  --- 1225933914 diffusion 0 [0 0 0 0] ------- [1:255 1:254 32 0] 
s 45.123001000 _0_ AGT  --- 1190071914 diffusion 0 [0 0 0 0] ------- [0:254 0:255 32 0] 
r 45.123001000 _0_ RTR  --- 1190071914 diffusion 0 [0 0 0 0] ------- [0:254 0:255 32 0] 
r 45.123002000 _0_ AGT  --- 2045655616 diffusion 0 [0 0 0 0] ------- [0:255 0:254 32 0] 
s 45.123003000 _0_ AGT  --- 1190071915 diffusion 0 [0 0 0 0] ------- [0:254 0:255 32 0] 
r 45.123003000 _0_ RTR  --- 1190071915 diffusion 0 [0 0 0 0] ------- [0:254 0:255 32 0] 
r 45.124717482 _1_ RTR  --- 1190071914 diffusion 0 [13a 1 0 800] ------- [0:255 1:255 32 1] 
r 45.124718482 _1_ AGT  --- 1225933915 diffusion 0 [0 0 0 0] ------- [1:255 1:254 32 0] 
s 45.124719482 _1_ AGT  --- 528599293 diffusion 0 [0 0 0 0] ------- [1:254 1:255 32 0] 
r 45.124719482 _1_ RTR  --- 528599293 diffusion 0 [0 0 0 0] ------- [1:254 1:255 32 0] 
r 45.126555976 _2_ RTR  --- 1190071914 diffusion 0 [13a 2 1 800] ------- [1:255 2:255 32 2] 
r 45.126556976 _2_ AGT  --- 580900459 diffusion 0 [0 0 0 0] ------- [2:255 2:254 32 0] 
s 45.126557976 _2_ AGT  --- 1566500026 diffusion 0 [0 0 0 0] ------- [2:254 2:255 32 0] 
r 45.126557976 _2_ RTR  --- 1566500026 diffusion 0 [0 0 0 0] ------- [2:254 2:255 32 0] 
r 45.126558976 _2_ AGT  --- 1190071914 diffusion 0 [0 0 0 0] ------- [2:255 2:254 32 0] 
s 49.605001000 _0_ AGT  --- 1190071916 diffusion 0 [0 0 0 0] ------- [0:254 0:255 32 0] 
r 49.605001000 _0_ RTR  --- 1190071916 diffusion 0 [0 0 0 0] ------- [0:254 0:255 32 0] 
r 49.605002000 _0_ AGT  --- 2045655617 diffusion 0 [0 0 0 0] ------- [0:255 0:254 32 0] 
s 50.123001000 _0_ AGT  --- 1190071917 diffusion 0 [0 0 0 0] ------- [0:254 0:255 32 0] 
r 50.123001000 _0_ RTR  --- 1190071917 diffusion 0 [0 0 0 0] ------- [0:254 0:255 32 0] 
r 50.123002000 _0_ AGT  --- 2045655618 diffusion 0 [0 0 0 0] ------- [0:255 0:254 32 0] 
s 50.123003000 _0_ AGT  --- 1190071918 diffusion 0 [0 0 0 0] ------- [0:254 0:255 32 0] 
r 50.123003000 _0_ RTR  --- 1190071918 diffusion 0 [0 0 0 0] ------- [0:254 0:255 32 0] 
r 50.124257482 _1_ RTR  --- 1190071917 diffusion 0 [13a 1 0 800] ------- [0:255 1:255 32 1] 
r 50.124258482 _1_ AGT  --- 1225933916 diffusion 0 [0 0 0 0] ------- [1:255 1:254 32 0] 
s 50.124259482 _1_ AGT  --- 528599294 diffusion 0 [0 0 0 0] ------- [1:254 1:255 32 0] 
r 50.124259482 _1_ RTR  --- 528599294 diffusion 0 [0 0 0 0] ------- [1:254 1:255 32 0] 
r 50.125715976 _2_ RTR  --- 1190071917 diffusion 0 [13a 2 1 800] ------- [1:255 2:255 32 2] 
r 50.125716976 _2_ AGT  --- 580900460 diffusion 0 [0 0 0 0] ------- [2:255 2:254 32 0] 
s 50.125717976 _2_ AGT  --- 1566500027 diffusion 0 [0 0 0 0] ------- [2:254 2:255 32 0] 
r 50.125717976 _2_ RTR  --- 1566500027 diffusion 0 [0 0 0 0] ------- [2:254 2:255 32 0] 
r 50.125718976 _2_ AGT  --- 1190071917 diffusion 0 [0 0 0 0] ------- [2:255 2:254 32 0] 
s 55.123001000 _0_ AGT  --- 1190071919 diffusion 0 [0 0 0 0] ------- [0:254 0:255 32 0] 
r 55.123001000 _0_ RTR  --- 1190071919 diffusion 0 [0 0 0 0] ------- [0:254 0:255 32 0] 
r 55.123002000 _0_ AGT  --- 2045655619 diffusion 0 [0 0 0 0] ------- [0:255 0:254 32 0] 
s 55.123003000 _0_ AGT  --- 1190071920 diffusion 0 [0 0 0 0] ------- [0:254 0:255 32 0] 
r 55.123003000 _0_ RTR  --- 1190071920 diffusion 0 [0 0 0 0] ------- [0:254 0:255 32 0] 
r 55.124697482 _1_ RTR  --- 1190071919 diffusion 0 [13a 1 0 800] ------- [0:255 1:255 32 1] 
r 55.124698482 _1_ AGT  --- 1225933917 diffusion 0 [0 0 0 0] ------- [1:255 1:254 32 0] 
s 55.124699482 _1_ AGT  --- 528599295 diffusion 0 [0 0 0 0] ------- [1:254 1:255 32 0] 
r 55.124699482 _1_ RTR  --- 528599295 diffusion 0 [0 0 0 0] ------- [1:254 1:255 32 0] 
r 55.126155976 _2_ RTR  --- 1190071919 diffusion 0 [13a 2 1 800] ------- [1:255 2:255 32 2] 
r 55.126156976 _2_ AGT  --- 580900461 diffusion 0 [0 0 0 0] ------- [2:255 2:254 32 0] 
s 55.126157976 _2_ AGT  --- 1566500028 diffusion 0 [0 0 0 0] ------- [2:254 2:255 32 0] 
r 55.126157976 _2_ RTR  --- 1566500028 diffusion 0 [0 0 0 0] ------- [2:254 2:255 32 0] 
r 55.126158976 _2_ AGT  --- 1190071919 diffusion 0 [0 0 0 0] ------- [2:255 2:254 32 0] 
s 60.000001000 _0_ AGT  --- 1190071921 diffusion 0 [0 0 0 0] ------- [0:254 0:255 32 0] 
r 60.000001000 _0_ RTR  --- 1190071921 diffusion 0 [0 0 0 0] ------- [0:254 0:255 32 0] 
s 60.000001000 _1_ AGT  --- 528599296 diffusion 0 [0 0 0 0] ------- [1:254 1:255 32 0] 
r 60.000001000 _1_ RTR  --- 528599296 diffusion 0 [0 0 0 0] ------- [1:254 1:255 32 0] 
s 60.000001000 _2_ AGT  --- 1566500029 diffusion 0 [0 0 0 0] ------- [2:254 2:255 32 0] 
r 60.000001000 _2_ RTR  --- 1566500029 diffusion 0 [0 0 0 0] ------- [2:254 2:255 32 0] 
s 60.123001000 _0_ AGT  --- 1190071922 diffusion 0 [0 0 0 0] ------- [0:254 0:255 32 0] 
r 60.123001000 _0_ RTR  --- 1190071922 diffusion 0 [0 0 0 0] ------- [0:254 0:255 32 0] 
r 60.123002000 _0_ AGT  --- 2045655620 diffusion 0 [0 0 0 0] ------- [0:255 0:254 32 0] 
s 60.123003000 _0_ AGT  --- 1190071923 diffusion 0 [0 0 0 0] ------- [0:254 0:255 32 0] 
r 60.123003000 _0_ RTR  --- 1190071923 diffusion 0 [0 0 0 0] ------- [0:254 0:255 32 0] 
r 60.124237482 _1_ RTR  --- 1190071922 diffusion 0 [13a 1 0 800] ------- [0:255 1:255 32 1] 
r 60.124238482 _1_ AGT  --- 1225933918 diffusion 0 [0 0 0 0] ------- [1:255 1:254 32 0] 
s 60.124239482 _1_ AGT  --- 528599297 diffusion 0 [0 0 0 0] ------- [1:254 1:255 32 0] 
r 60.124239482 _1_ RTR  --- 528599297 diffusion 0 [0 0 0 0] ------- [1:254 1:255 32 0] 
r 60.126195976 _2_ RTR  --- 1190071922 diffusion 0 [13a 2 1 800] ------- [1:255 2:255 32 2] 
r 60.126196976 _2_ AGT  --- 580900462 diffusion 0 [0 0 0 0] ------- [2:255 2:254 32 0] 
s 60.126197976 _2_ AGT  --- 1566500030 diffusion 0 [0 0 0 0] ------- [2:254 2:255 32 0] 
r 60.126197976 _2_ RTR  --- 1566500030 diffusion 0 [0 0 0 0] ------- [2:254 2:255 32 0] 
r 60.126198976 _2_ AGT  --- 1190071922 diffusion 0 [0 0 0 0] ------- [2:255 2:254 32 0] 
s 65.123001000 _0_ AGT  --- 1190071924 diffusion 0 [0 0 0 0] ------- [0:254 0:255 32 0] 
r 65.123001000 _0_ RTR  --- 1190071924 diffusion 0 [0 0 0 0] ------- [0:254 0:255 32 0] 
r 65.123002000 _0_ AGT  --- 2045655621 diffusion 0 [0 0 0 0] ------- [0:255 0:254 32 0] 
s 65.123003000 _0_ AGT  --- 1190071925 diffusion 0 [0 0 0 0] ------- [0:254 0:255 32 0] 
r 65.123003000 _0_ RTR  --- 1190071925 diffusion 0 [0 0 0 0] ------- [0:254 0:255 32 0] 
r 65.124497482 _1_ RTR  --- 1190071924 diffusion 0 [13a 1 0 800] ------- [0:255 1:255 32 1] 
r 65.124498482 _1_ AGT  --- 1225933919 diffusion 0 [0 0 0 0] ------- [1:255 1:254 32 0] 
s 65.124499482 _1_ AGT  --- 528599298 diffusion 0 [0 0 0 0] ------- [1:254 1:255 32 0] 
r 65.124499482 _1_ RTR  --- 528599298 diffusion 0 [0 0 0 0] ------- [1:254 1:255 32 0] 
s 65.124499482 _1_ AGT  --- 528599299 diffusion 0 [0 0 0 0] ------- [1:254 1:255 32 0] 
r 65.124499482 _1_ RTR  --- 528599299 diffusion 0 [0 0 0 0] ------- [1:254 1:255 32 0] 
r 65.126095976 _2_ RTR  --- 1190071924 diffusion 0 [13a 2 1 800] ------- [1:255 2:255 32 2] 
r 65.126096976 _2_ AGT  --- 580900463 diffusion 0 [0 0 0 0] ------- [2:255 2:254 32 0] 
s 65.126097976 _2_ AGT  --- 1566500031 diffusion 0 [0 0 0 0] ------- [2:254 2:255 32 0] 
r 65.126097976 _2_ RTR  --- 1566500031 diffusion 0 [0 0 0 0] ------- [2:254 2:255 32 0] 
s 65.126097976 _2_ AGT  --- 1566500032 diffusion 0 [0 0 0 0] ------- [2:254 2:255 32 0] 
r 65.126097976 _2_ RTR  --- 1566500032 diffusion 0 [0 0 0 0] ------- [2:254 2:255 32 0] 
r 65.126098976 _2_ AGT  --- 1190071924 diffusion 0 [0 0 0 0] ------- [2:255 2:254 32 0] 
r 65.127615290 _0_ RTR  --- 1190071924 diffusion 0 [13a 0 1 800] ------- [1:255 0:255 32 0] 
r 65.127616290 _0_ AGT  --- 2045655622 diffusion 0 [0 0 0 0] ------- [0:255 0:254 32 0] 
r 65.129899434 _1_ RTR  --- 1190071924 diffusion 0 [13a 1 2 800] ------- [2:255 1:255 32 1] 
r 65.129900434 _1_ AGT  --- 1225933920 diffusion 0 [0 0 0 0] ------- [1:255 1:254 32 0] 
s 65.634097976 _2_ AGT  --- 1566500033 diffusion 0 [0 0 0 0] ------- [2:254 2:255 32 0] 
r 65.634097976 _2_ RTR  --- 1566500033 diffusion 0 [0 0 0 0] ------- [2:254 2:255 32 0] 
r 65.635552471 _1_ RTR  --- 1709957114 diffusion 0 [13a 1 2 800] ------- [2:255 1:255 32 1] 
r 65.635553471 _1_ AGT  --- 1225933921 diffusion 0 [0 0 0 0] ------- [1:255 1:254 32 0] 
s 65.635554471 _1_ AGT  --- 528599300 diffusion 0 [0 0 0 0] ------- [1:254 1:255 32 0] 
r 65.635554471 _1_ RTR  --- 528599300 diffusion 0 [0 0 0 0] ------- [1:254 1:255 32 0] 
r 65.637190952 _0_ RTR  --- 1709957114 diffusion 0 [13a 0 1 800] ------- [1:255 0:255 32 0] 
r 65.637191952 _0_ AGT  --- 2045655623 diffusion 0 [0 0 0 0] ------- [0:255 0:254 32 0] 
s 70.123001000 _0_ AGT  --- 1190071926 diffusion 0 [0 0 0 0] ------- [0:254 0:255 32 0] 
r 70.123001000 _0_ RTR  --- 1190071926 diffusion 0 [0 0 0 0] ------- [0:254 0:255 32 0] 
r 70.123002000 _0_ AGT  --- 2045655624 diffusion 0 [0 0 0 0] ------- [0:255 0:254 32 0] 
s 70.123003000 _0_ AGT  --- 1190071927 diffusion 0 [0 0 0 0] ------- [0:254 0:255 32 0] 
r 70.123003000 _0_ RTR  --- 1190071927 diffusion 0 [0 0 0 0] ------- [0:254 0:255 32 0] 
r 70.124617482 _1_ RTR  --- 1190071926 diffusion 0 [13a 1 0 800] ------- [0:255 1:255 32 1] 
r 70.124618482 _1_ AGT  --- 1225933922 diffusion 0 [0 0 0 0] ------- [1:255 1:254 32 0] 
s 70.124619482 _1_ AGT  --- 528599301 diffusion 0 [0 0 0 0] ------- [1:254 1:255 32 0] 
r 70.124619482 _1_ RTR  --- 528599301 diffusion 0 [0 0 0 0] ------- [1:254 1:255 32 0] 
r 70.126575976 _2_ RTR  --- 1190071926 diffusion 0 [13a 2 1 800] ------- [1:255 2:255 32 2] 
r 70.126576976 _2_ AGT  --- 580900464 diffusion 0 [0 0 0 0] ------- [2:255 2:254 32 0] 
s 70.126577976 _2_ AGT  --- 1566500034 diffusion 0 [0 0 0 0] ------- [2:254 2:255 32 0] 
r 70.126577976 _2_ RTR  --- 1566500034 diffusion 0 [0 0 0 0] ------- [2:254 2:255 32 0] 
r 70.126578976 _2_ AGT  --- 1190071926 diffusion 0 [0 0 0 0] ------- [2:255 2:254 32 0] 
s 75.123001000 _0_ AGT  --- 1190071928 diffusion 0 [0 0 0 0] ------- [0:254 0:255 32 0] 
r 75.123001000 _0_ RTR  --- 1190071928 diffusion 0 [0 0 0 0] ------- [0:254 0:255 32 0] 
r 75.123002000 _0_ AGT  --- 2045655625 diffusion 0 [0 0 0 0] ------- [0:255 0:254 32 0] 
s 75.123003000 _0_ AGT  --- 1190071929 diffusion 0 [0 0 0 0] ------- [0:254 0:255 32 0] 
r 75.123003000 _0_ RTR  --- 1190071929 diffusion 0 [0 0 0 0] ------- [0:254 0:255 32 0] 
r 75.124697482 _1_ RTR  --- 1190071928 diffusion 0 [13a 1 0 800] ------- [0:255 1:255 32 1] 
r 75.124698482 _1_ AGT  --- 1225933923 diffusion 0 [0 0 0 0] ------- [1:255 1:254 32 0] 
s 75.124699482 _1_ AGT  --- 528599302 diffusion 0 [0 0 0 0] ------- [1:254 1:255 32 0] 
r 75.124699482 _1_ RTR  --- 528599302 diffusion 0 [0 0 0 0] ------- [1:254 1:255 32 0] 
r 75.126155976 _2_ RTR  --- 1190071928 diffusion 0 [13a 2 1 800] ------- [1:255 2:255 32 2] 
r 75.126156976 _2_ AGT  --- 580900465 diffusion 0 [0 0 0 0] ------- [2:255 2:254 32 0] 
s 75.126157976 _2_ AGT  --- 1566500035 diffusion 0 [0 0 0 0] ------- [2:254 2:255 32 0] 
r 75.126157976 _2_ RTR  --- 1566500035 diffusion 0 [0 0 0 0] ------- [2:254 2:255 32 0] 
r 75.126158976 _2_ AGT  --- 1190071928 diffusion 0 [0 0 0 0] ------- [2:255 2:254 32 0] 
s 78.742001000 _0_ AGT  --- 1190071930 diffusion 0 [0 0 0 0] ------- [0:254 0:255 32 0] 
r 78.742001000 _0_ RTR  --- 1190071930 diffusion 0 [0 0 0 0] ------- [0:254 0:255 32 0] 
r 78.742002000 _0_ AGT  --- 2045655626 diffusion 0 [0 0 0 0] ------- [0:255 0:254 32 0] 
s 80.000001000 _0_ AGT  --- 1190071931 diffusion 0 [0 0 0 0] ------- [0:254 0:255 32 0] 
r 80.000001000 _0_ RTR  --- 1190071931 diffusion 0 [0 0 0 0] ------- [0:254 0:255 32 0] 
s 80.000001000 _1_ AGT  --- 528599303 diffusion 0 [0 0 0 0] ------- [1:254 1:255 32 0] 